                         Program Version 5.0.4 -  RELEASE  -
|  1> # ORCA input file
|  2> #
|  3> !PBE 6-311+G** Opt CPCM(WATER)
|  4>
|  5> * xyz 0 1
|  6>    H        1.20551         0.10685         0.44594
|  7>    C        2.19632         0.04506        -0.02783
|  8>    C        3.21572        -0.37109         1.03186
|  9>    C        2.03439        -1.05108        -1.08502
| 10>    O        1.51321        -2.19903        -0.58151
| 11>    O        2.30324        -0.95546        -2.27392
| 12>    C        2.50710         1.44593        -0.54890
| 13>    C        3.40786         1.70154        -1.59807
| 14>    C        3.57635         3.00431        -2.10322
| 15>    C        2.93975         4.07783        -1.47365
| 16>    C        2.10702         3.84904        -0.38159
| 17>    C        1.88367         2.54538         0.06643
| 18>    C        4.40386         3.29606        -3.30921
| 19>    O        4.98348         4.37514        -3.39375
| 20>    C        4.52609         2.31329        -4.42517
| 21>    C        5.68066         2.33025        -5.21731
| 22>    C        5.84753         1.38292        -6.23056
| 23>    C        4.86240         0.42187        -6.45742
| 24>    C        3.69446         0.42873        -5.70106
| 25>    C        3.51418         1.38534        -4.70458
| 26>    H        2.94169        -1.32446         1.49691
| 27>    H        3.27834         0.37448         1.83212
| 28>    H        4.21497        -0.49366         0.60096
| 29>    H        1.29183        -2.17361         0.36870
| 30>    H        3.95639         0.87710        -2.04912
| 31>    H        3.08408         5.09274        -1.84030
| 32>    H        1.61795         4.68612         0.11116
| 33>    H        1.21218         2.39612         0.90952
| 34>    H        6.45597         3.07343        -5.04122
| 35>    H        6.75113         1.38817        -6.83519
| 36>    H        5.00308        -0.33209        -7.22859
| 37>    H        2.92174        -0.31696        -5.87375
| 38>    H        2.58039         1.38013        -4.14719
| 39> *
| 40>
| 41>                          ****END OF INPUT****
 Total Charge           Charge          ....    0
 Multiplicity           Mult            ....    1
 Number of Electrons    NEL             ....  134
FINAL SINGLE POINT ENERGY      -843.042787521582
FINAL SINGLE POINT ENERGY      -843.047185383247
FINAL SINGLE POINT ENERGY      -843.048638937139
FINAL SINGLE POINT ENERGY      -843.049139085300
FINAL SINGLE POINT ENERGY      -843.049638943061
FINAL SINGLE POINT ENERGY      -843.049885802837
FINAL SINGLE POINT ENERGY      -843.050021263434
FINAL SINGLE POINT ENERGY      -843.050116913494
FINAL SINGLE POINT ENERGY      -843.050201123083
FINAL SINGLE POINT ENERGY      -843.050268919366
FINAL SINGLE POINT ENERGY      -843.050298138435
FINAL SINGLE POINT ENERGY      -843.050336276308
FINAL SINGLE POINT ENERGY      -843.050344634861
FINAL SINGLE POINT ENERGY      -843.050347266683
                    ***********************HURRAY********************

CARTESIAN COORDINATES (ANGSTROEM)
---------------------------------
  H      1.688819    0.177622    1.027420
  C      2.309376    0.081872    0.119558
  C      3.674734   -0.521230    0.539913
  C      1.595653   -0.902664   -0.816099
  O      0.980095   -1.955003   -0.212187
  O      1.570797   -0.831597   -2.032176
  C      2.439052    1.464473   -0.495811
  C      3.271630    1.704080   -1.601723
  C      3.408563    2.999542   -2.134247
  C      2.702447    4.070566   -1.550011
  C      1.854075    3.835808   -0.468322
  C      1.724898    2.540649    0.055423
  C      4.348401    3.290360   -3.263061
  O      4.937240    4.380163   -3.315473
  C      4.569523    2.263503   -4.328736
  C      5.811833    2.235564   -4.995289
  C      6.038025    1.325302   -6.029610
  C      5.016223    0.450153   -6.430528
  C      3.771609    0.484740   -5.788113
  C      3.550507    1.378015   -4.733664
  H      3.539552   -1.487216    1.048754
  H      4.176662    0.167766    1.234135
  H      4.326024   -0.675198   -0.332482
  H      1.047553   -1.889363    0.761040
  H      3.842228    0.882273   -2.038061
  H      2.820559    5.075584   -1.961007
  H      1.290014    4.659831   -0.025009
  H      1.063718    2.365147    0.909124
  H      6.596630    2.928179   -4.682525
  H      7.010012    1.296747   -6.527863
  H      5.190766   -0.256216   -7.245910
  H      2.970402   -0.185625   -6.108097
  H      2.574922    1.406562   -4.243896

 Multiplicity           Mult            ....    1
 Number of Electrons    NEL             ....  134
 Basis Dimension        Dim             ....  502

ORBITAL ENERGIES
----------------

  NO   OCC          E(Eh)            E(eV)
   0   2.0000     -18.801750      -511.6216
   1   2.0000     -18.747653      -510.1496
   2   2.0000     -18.745116      -510.0806
   3   2.0000     -10.020904      -272.6827
   4   2.0000      -9.979490      -271.5557
   5   2.0000      -9.920021      -269.9375
   6   2.0000      -9.910607      -269.6813
   7   2.0000      -9.908357      -269.6201
   8   2.0000      -9.908070      -269.6123
   9   2.0000      -9.901916      -269.4448
  10   2.0000      -9.901762      -269.4406
  11   2.0000      -9.899961      -269.3916
  12   2.0000      -9.899882      -269.3895
  13   2.0000      -9.899506      -269.3793
  14   2.0000      -9.899264      -269.3727
  15   2.0000      -9.896823      -269.3062
  16   2.0000      -9.896692      -269.3027
  17   2.0000      -9.896668      -269.3020
  18   2.0000      -9.886053      -269.0132
  19   2.0000      -1.022422       -27.8215
  20   2.0000      -0.959370       -26.1058
  21   2.0000      -0.944343       -25.6969
  22   2.0000      -0.799729       -21.7617
  23   2.0000      -0.791069       -21.5261
  24   2.0000      -0.742112       -20.1939
  25   2.0000      -0.710918       -19.3451
  26   2.0000      -0.688707       -18.7407
  27   2.0000      -0.684549       -18.6275
  28   2.0000      -0.673106       -18.3161
  29   2.0000      -0.602738       -16.4013
  30   2.0000      -0.598651       -16.2901
  31   2.0000      -0.571486       -15.5509
  32   2.0000      -0.562354       -15.3024
  33   2.0000      -0.554458       -15.0876
  34   2.0000      -0.540824       -14.7166
  35   2.0000      -0.507185       -13.8012
  36   2.0000      -0.483203       -13.1486
  37   2.0000      -0.468263       -12.7421
  38   2.0000      -0.453319       -12.3354
  39   2.0000      -0.432700       -11.7744
  40   2.0000      -0.423205       -11.5160
  41   2.0000      -0.421650       -11.4737
  42   2.0000      -0.415827       -11.3152
  43   2.0000      -0.410315       -11.1652
  44   2.0000      -0.397634       -10.8202
  45   2.0000      -0.393317       -10.7027
  46   2.0000      -0.390851       -10.6356
  47   2.0000      -0.382932       -10.4201
  48   2.0000      -0.381611       -10.3842
  49   2.0000      -0.367494       -10.0000
  50   2.0000      -0.362091        -9.8530
  51   2.0000      -0.354141        -9.6367
  52   2.0000      -0.341571        -9.2946
  53   2.0000      -0.337007        -9.1704
  54   2.0000      -0.330516        -8.9938
  55   2.0000      -0.324385        -8.8270
  56   2.0000      -0.320941        -8.7332
  57   2.0000      -0.314874        -8.5682
  58   2.0000      -0.306542        -8.3414
  59   2.0000      -0.304539        -8.2869
  60   2.0000      -0.290845        -7.9143
  61   2.0000      -0.251021        -6.8306
  62   2.0000      -0.245416        -6.6781
  63   2.0000      -0.243631        -6.6295
  64   2.0000      -0.240593        -6.5469
  65   2.0000      -0.237594        -6.4653
  66   2.0000      -0.221159        -6.0180
  67   0.0000      -0.109405        -2.9771
  68   0.0000      -0.063124        -1.7177
  69   0.0000      -0.058279        -1.5858
  70   0.0000      -0.053238        -1.4487
  71   0.0000      -0.045410        -1.2357

MULLIKEN ATOMIC CHARGES
-----------------------
   0 H :    0.222796
   1 C :   -0.202695
   2 C :   -0.570309
   3 C :   -0.084657
   4 O :   -0.165141
   5 O :   -0.311401
   6 C :    0.903647
   7 C :   -2.137218
   8 C :    1.630887
   9 C :    0.244207
  10 C :   -0.391035
  11 C :   -0.114209
  12 C :   -1.232032
  13 O :   -0.249169
  14 C :    1.730010
  15 C :    0.084488
  16 C :   -0.202765
  17 C :   -0.188210
  18 C :   -0.391690
  19 C :   -1.054160
  20 H :    0.188455
  21 H :    0.195840
  22 H :    0.198523
  23 H :    0.311597
  24 H :    0.188440
  25 H :    0.171795
  26 H :    0.174714
  27 H :    0.171207
  28 H :    0.166990
  29 H :    0.173951
  30 H :    0.175257
  31 H :    0.174421
  32 H :    0.187471
Sum of atomic charges:    0.0000000

LOEWDIN ATOMIC CHARGES
----------------------
   0 H :    0.112426
   1 C :   -0.127698
   2 C :   -0.086699
   3 C :   -0.016693
   4 O :   -0.047142
   5 O :   -0.190213
   6 C :   -0.098712
   7 C :   -0.033218
   8 C :   -0.107259
   9 C :   -0.028071
  10 C :   -0.055495
  11 C :   -0.036653
  12 C :    0.007802
  13 O :   -0.211645
  14 C :   -0.114613
  15 C :   -0.031010
  16 C :   -0.064660
  17 C :   -0.051145
  18 C :   -0.066089
  19 C :   -0.045337
  20 H :    0.079087
  21 H :    0.084972
  22 H :    0.085647
  23 H :    0.154293
  24 H :    0.116601
  25 H :    0.102127
  26 H :    0.091035
  27 H :    0.099239
  28 H :    0.101919
  29 H :    0.089953
  30 H :    0.089912
  31 H :    0.091041
  32 H :    0.106297

  Mayer bond orders larger than 0.100000
B(  0-H ,  1-C ) :   1.0899 B(  0-H ,  6-C ) :  -0.3427 B(  0-H ,  7-C ) :   0.1162
B(  1-C ,  2-C ) :   0.9462 B(  1-C ,  3-C ) :   1.1212 B(  1-C ,  4-O ) :   0.2460
B(  1-C ,  5-O ) :  -0.2303 B(  1-C ,  6-C ) :  -0.1030 B(  1-C ,  7-C ) :   0.3313
B(  1-C ,  8-C ) :   0.1151 B(  1-C , 11-C ) :  -0.4444 B(  2-C ,  3-C ) :  -0.1608
B(  2-C ,  4-O ) :  -0.1319 B(  2-C ,  6-C ) :  -0.3632 B(  2-C ,  7-C ) :   0.5445
B(  2-C , 11-C ) :  -0.1801 B(  2-C , 20-H ) :   0.9646 B(  2-C , 21-H ) :   0.9854
B(  2-C , 22-H ) :   0.9920 B(  3-C ,  4-O ) :   1.2124 B(  3-C ,  5-O ) :   2.0232
B(  3-C ,  6-C ) :  -0.7605 B(  3-C ,  7-C ) :   1.0727 B(  3-C ,  8-C ) :  -0.1432
B(  3-C , 11-C ) :  -0.2334 B(  4-O ,  6-C ) :  -0.2112 B(  4-O ,  7-C ) :   0.1334
B(  4-O , 23-H ) :   0.8506 B(  5-O ,  6-C ) :   0.6042 B(  5-O ,  7-C ) :  -0.4591
B(  5-O ,  8-C ) :  -0.1035 B(  5-O , 11-C ) :   0.1333 B(  6-C ,  7-C ) :   1.9478
B(  6-C ,  8-C ) :   0.1731 B(  6-C ,  9-C ) :   0.2606 B(  6-C , 11-C ) :   1.2820
B(  6-C , 14-C ) :   0.4496 B(  6-C , 15-C ) :  -1.1845 B(  6-C , 16-C ) :   0.2238
B(  6-C , 17-C ) :  -0.1633 B(  6-C , 18-C ) :   0.4858 B(  6-C , 24-H ) :   0.1333
B(  7-C ,  8-C ) :   0.2946 B(  7-C , 10-C ) :  -0.2759 B(  7-C , 11-C ) :   1.1494
B(  7-C , 12-C ) :   2.5297 B(  7-C , 14-C ) :  -0.6020 B(  7-C , 15-C ) :  -0.5430
B(  7-C , 16-C ) :  -0.4385 B(  7-C , 17-C ) :   0.1970 B(  7-C , 19-C ) :   2.1605
B(  7-C , 24-H ) :   0.6044 B(  7-C , 32-H ) :   0.1164 B(  8-C ,  9-C ) :   1.8102
B(  8-C , 11-C ) :  -0.1336 B(  8-C , 12-C ) :  -0.9373 B(  8-C , 14-C ) :   0.7656
B(  8-C , 15-C ) :  -0.5996 B(  8-C , 16-C ) :   0.2246 B(  8-C , 17-C ) :  -0.1258
B(  8-C , 18-C ) :   0.3160 B(  8-C , 19-C ) :  -0.7149 B(  9-C , 10-C ) :   1.1578
B(  9-C , 11-C ) :  -0.2889 B(  9-C , 12-C ) :  -0.6958 B(  9-C , 14-C ) :  -0.9395
B(  9-C , 15-C ) :   2.1559 B(  9-C , 16-C ) :  -0.1214 B(  9-C , 17-C ) :   0.1696
B(  9-C , 18-C ) :  -0.8826 B(  9-C , 19-C ) :  -0.7775 B(  9-C , 25-H ) :   0.8861
B(  9-C , 26-H ) :  -0.1257 B( 10-C , 11-C ) :   1.0943 B( 10-C , 14-C ) :   0.2582
B( 10-C , 15-C ) :  -0.2533 B( 10-C , 18-C ) :   0.1823 B( 10-C , 19-C ) :  -0.2305
B( 10-C , 26-H ) :   1.0563 B( 11-C , 14-C ) :  -0.1348 B( 11-C , 19-C ) :   0.1133
B( 11-C , 24-H ) :   0.1070 B( 11-C , 27-H ) :   0.8272 B( 12-C , 13-O ) :   1.9350
B( 12-C , 14-C ) :  -0.5168 B( 12-C , 15-C ) :  -0.2153 B( 12-C , 16-C ) :  -0.1493
B( 12-C , 18-C ) :   0.2207 B( 12-C , 19-C ) :   1.6170 B( 12-C , 24-H ) :   0.1318
B( 12-C , 28-H ) :   0.1505 B( 14-C , 15-C ) :   1.5918 B( 14-C , 18-C ) :  -0.1278
B( 14-C , 19-C ) :   0.8212 B( 14-C , 28-H ) :  -0.1173 B( 15-C , 16-C ) :   1.2941
B( 15-C , 17-C ) :   0.2099 B( 15-C , 19-C ) :  -0.1286 B( 15-C , 28-H ) :   0.9378
B( 15-C , 29-H ) :  -0.1209 B( 16-C , 17-C ) :   1.4352 B( 16-C , 29-H ) :   1.0141
B( 17-C , 18-C ) :   1.3632 B( 17-C , 30-H ) :   0.9541 B( 18-C , 19-C ) :   1.3006
B( 18-C , 31-H ) :   1.0106 B( 19-C , 31-H ) :  -0.1046 B( 19-C , 32-H ) :   0.9561

FINAL SINGLE POINT ENERGY      -843.050347819968

DIPOLE MOMENT
-------------
                                X             Y             Z
Electronic contribution:     -2.04433       3.71648      -3.34938
Nuclear contribution   :      1.63516      -5.10283       5.65353
                        -----------------------------------------
Total Dipole Moment    :     -0.40917      -1.38636       2.30415
                        -----------------------------------------
Magnitude (a.u.)       :      2.72002
Magnitude (Debye)      :      6.91374

Rotational constants in cm-1:     0.017534     0.008635     0.006477
Rotational constants in MHz :   525.647968   258.863345   194.184374

                             ****ORCA TERMINATED NORMALLY****
TOTAL RUN TIME: 0 days 0 hours 40 minutes 51 seconds 498 msec
