                         Program Version 5.0.4 -  RELEASE  -
|  1> # ORCA input file
|  2> #
|  3> !PBE def2-TZVP Opt CPCM(WATER)
|  4>
|  5> * xyz 0 1
|  6>    H        1.20129        -0.16932         0.23897
|  7>    C        2.26794        -0.11673        -0.02274
|  8>    C        3.06219        -0.56629         1.20342
|  9>    C        2.43159        -1.11202        -1.17182
| 10>    O        1.77888        -0.74114        -2.30430
| 11>    O        3.04791        -2.16647        -1.10611
| 12>    C        2.60248         1.32807        -0.37484
| 13>    C        3.66812         1.67324        -1.22306
| 14>    C        3.89277         3.01366        -1.58287
| 15>    C        3.12282         4.02608        -1.00191
| 16>    C        2.10481         3.69973        -0.10959
| 17>    C        1.83730         2.36158         0.18969
| 18>    C        4.92807         3.41042        -2.58203
| 19>    O        5.48927         4.49875        -2.46391
| 20>    C        5.27589         2.52516        -3.72903
| 21>    C        6.55331         2.62100        -4.29124
| 22>    C        6.92612         1.76780        -5.33332
| 23>    C        6.02518         0.81856        -5.81378
| 24>    C        4.73811         0.74719        -5.28495
| 25>    C        4.35571         1.61422        -4.26425
| 26>    H        2.74302        -1.56412         1.52440
| 27>    H        2.91450         0.11804         2.04595
| 28>    H        4.13600        -0.61445         0.99043
| 29>    H        1.29481         0.09946        -2.22163
| 30>    H        4.31939         0.89273        -1.61410
| 31>    H        3.31457         5.06879        -1.24530
| 32>    H        1.51553         4.48948         0.35131
| 33>    H        1.03152         2.13485         0.88711
| 34>    H        7.26495         3.35624        -3.91738
| 35>    H        7.92251         1.83890        -5.76326
| 36>    H        6.32312         0.13898        -6.60964
| 37>    H        4.03290         0.01141        -5.66607
| 38>    H        3.33494         1.55906        -3.89816
| 39> *
| 40>
| 41>                          ****END OF INPUT****
 Total Charge           Charge          ....    0
 Multiplicity           Mult            ....    1
 Number of Electrons    NEL             ....  134
FINAL SINGLE POINT ENERGY      -843.133293769553
FINAL SINGLE POINT ENERGY      -843.136714693307
FINAL SINGLE POINT ENERGY      -843.137417754279
FINAL SINGLE POINT ENERGY      -843.137620319492
FINAL SINGLE POINT ENERGY      -843.137889099320
FINAL SINGLE POINT ENERGY      -843.138043320128
FINAL SINGLE POINT ENERGY      -843.138158794124
FINAL SINGLE POINT ENERGY      -843.138246472070
FINAL SINGLE POINT ENERGY      -843.138298557352
FINAL SINGLE POINT ENERGY      -843.138298902598
FINAL SINGLE POINT ENERGY      -843.138319911104
FINAL SINGLE POINT ENERGY      -843.138324691416
FINAL SINGLE POINT ENERGY      -843.138331003345
FINAL SINGLE POINT ENERGY      -843.138339361450
FINAL SINGLE POINT ENERGY      -843.138366512519
FINAL SINGLE POINT ENERGY      -843.138367150031
FINAL SINGLE POINT ENERGY      -843.138381042899
FINAL SINGLE POINT ENERGY      -843.138384419446
FINAL SINGLE POINT ENERGY      -843.138385521382
                    ***********************HURRAY********************

CARTESIAN COORDINATES (ANGSTROEM)
---------------------------------
  H      1.419014   -0.115441    0.694014
  C      2.338340   -0.086929    0.083127
  C      3.509308   -0.605227    0.923199
  C      2.065668   -0.992263   -1.121193
  O      0.952045   -0.704042   -1.841657
  O      2.761148   -1.929539   -1.463755
  C      2.536909    1.356083   -0.366328
  C      3.548869    1.683921   -1.279947
  C      3.769201    3.015035   -1.664078
  C      2.961718    4.031882   -1.123635
  C      1.939146    3.712036   -0.235762
  C      1.728684    2.381035    0.142911
  C      4.891667    3.398978   -2.576454
  O      5.456473    4.489195   -2.433592
  C      5.325577    2.462836   -3.657633
  C      6.665936    2.500365   -4.082714
  C      7.100202    1.678591   -5.120201
  C      6.194008    0.828197   -5.765829
  C      4.855472    0.798203   -5.364261
  C      4.423378    1.602232   -4.307616
  H      3.319630   -1.633129    1.260106
  H      3.642034    0.034426    1.805998
  H      4.443006   -0.599325    0.344692
  H      0.485417    0.068291   -1.459907
  H      4.191952    0.895249   -1.676649
  H      3.142094    5.066528   -1.418943
  H      1.300145    4.498644    0.169376
  H      0.930825    2.134807    0.847677
  H      7.360535    3.174920   -3.579273
  H      8.146430    1.700047   -5.430708
  H      6.532749    0.190053   -6.584241
  H      4.144772    0.146098   -5.874989
  H      3.375167    1.581101   -4.005746

 Multiplicity           Mult            ....    1
 Number of Electrons    NEL             ....  134
 Basis Dimension        Dim             ....  673

ORBITAL ENERGIES
----------------

  NO   OCC          E(Eh)            E(eV)
   0   2.0000     -18.802221      -511.6344
   1   2.0000     -18.747475      -510.1447
   2   2.0000     -18.746224      -510.1107
   3   2.0000     -10.016040      -272.5503
   4   2.0000      -9.977950      -271.5138
   5   2.0000      -9.916834      -269.8508
   6   2.0000      -9.914250      -269.7805
   7   2.0000      -9.909299      -269.6457
   8   2.0000      -9.906876      -269.5798
   9   2.0000      -9.903851      -269.4975
  10   2.0000      -9.901294      -269.4279
  11   2.0000      -9.901042      -269.4210
  12   2.0000      -9.899884      -269.3895
  13   2.0000      -9.898763      -269.3590
  14   2.0000      -9.898596      -269.3545
  15   2.0000      -9.898016      -269.3387
  16   2.0000      -9.895834      -269.2793
  17   2.0000      -9.895746      -269.2769
  18   2.0000      -9.878783      -268.8153
  19   2.0000      -1.016826       -27.6692
  20   2.0000      -0.955995       -26.0139
  21   2.0000      -0.938635       -25.5416
  22   2.0000      -0.800182       -21.7741
  23   2.0000      -0.789415       -21.4811
  24   2.0000      -0.740319       -20.1451
  25   2.0000      -0.709535       -19.3074
  26   2.0000      -0.687031       -18.6951
  27   2.0000      -0.682883       -18.5822
  28   2.0000      -0.670488       -18.2449
  29   2.0000      -0.600581       -16.3426
  30   2.0000      -0.598200       -16.2779
  31   2.0000      -0.566968       -15.4280
  32   2.0000      -0.559058       -15.2128
  33   2.0000      -0.552047       -15.0220
  34   2.0000      -0.539211       -14.6727
  35   2.0000      -0.506316       -13.7776
  36   2.0000      -0.482279       -13.1235
  37   2.0000      -0.466834       -12.7032
  38   2.0000      -0.452876       -12.3234
  39   2.0000      -0.431563       -11.7434
  40   2.0000      -0.421217       -11.4619
  41   2.0000      -0.415940       -11.3183
  42   2.0000      -0.414097       -11.2682
  43   2.0000      -0.410191       -11.1619
  44   2.0000      -0.397105       -10.8058
  45   2.0000      -0.391271       -10.6470
  46   2.0000      -0.384613       -10.4658
  47   2.0000      -0.381101       -10.3703
  48   2.0000      -0.376950       -10.2573
  49   2.0000      -0.374260       -10.1841
  50   2.0000      -0.362401        -9.8614
  51   2.0000      -0.354214        -9.6387
  52   2.0000      -0.339039        -9.2257
  53   2.0000      -0.330182        -8.9847
  54   2.0000      -0.327715        -8.9176
  55   2.0000      -0.320423        -8.7192
  56   2.0000      -0.318394        -8.6639
  57   2.0000      -0.312742        -8.5102
  58   2.0000      -0.304850        -8.2954
  59   2.0000      -0.304329        -8.2812
  60   2.0000      -0.289336        -7.8732
  61   2.0000      -0.251448        -6.8422
  62   2.0000      -0.246593        -6.7101
  63   2.0000      -0.244233        -6.6459
  64   2.0000      -0.241612        -6.5746
  65   2.0000      -0.233755        -6.3608
  66   2.0000      -0.219269        -5.9666
  67   0.0000      -0.107946        -2.9374
  68   0.0000      -0.062869        -1.7107
  69   0.0000      -0.060058        -1.6343
  70   0.0000      -0.049195        -1.3387
  71   0.0000      -0.041876        -1.1395

MULLIKEN ATOMIC CHARGES
-----------------------
   0 H :    0.141055
   1 C :   -0.035255
   2 C :   -0.418064
   3 C :    0.225419
   4 O :   -0.322627
   5 O :   -0.328879
   6 C :    0.120356
   7 C :   -0.365206
   8 C :    0.236391
   9 C :   -0.218341
  10 C :   -0.119355
  11 C :   -0.169658
  12 C :    0.155976
  13 O :   -0.341351
  14 C :    0.178249
  15 C :   -0.209632
  16 C :   -0.127945
  17 C :   -0.118329
  18 C :   -0.130593
  19 C :   -0.231504
  20 H :    0.139906
  21 H :    0.138368
  22 H :    0.137280
  23 H :    0.363134
  24 H :    0.163449
  25 H :    0.135444
  26 H :    0.142933
  27 H :    0.138363
  28 H :    0.133120
  29 H :    0.142442
  30 H :    0.144784
  31 H :    0.143397
  32 H :    0.156672
Sum of atomic charges:   -0.0000000

LOEWDIN ATOMIC CHARGES
----------------------
   0 H :    0.187328
   1 C :   -0.219470
   2 C :   -0.270247
   3 C :   -0.482824
   4 O :    0.115392
   5 O :    0.083482
   6 C :   -0.126067
   7 C :   -0.055266
   8 C :   -0.115743
   9 C :   -0.089589
  10 C :   -0.129181
  11 C :   -0.093075
  12 C :   -0.247944
  13 O :    0.095884
  14 C :   -0.122097
  15 C :   -0.091446
  16 C :   -0.135477
  17 C :   -0.125032
  18 C :   -0.136449
  19 C :   -0.094438
  20 H :    0.132670
  21 H :    0.134313
  22 H :    0.132139
  23 H :    0.218065
  24 H :    0.169369
  25 H :    0.158668
  26 H :    0.157449
  27 H :    0.161313
  28 H :    0.157964
  29 H :    0.155719
  30 H :    0.155769
  31 H :    0.156027
  32 H :    0.162794

  Mayer bond orders larger than 0.100000
B(  0-H ,  1-C ) :   0.9091 B(  1-C ,  2-C ) :   0.9813 B(  1-C ,  3-C ) :   0.9682
B(  1-C ,  6-C ) :   0.9044 B(  2-C , 20-H ) :   0.9593 B(  2-C , 21-H ) :   0.9586
B(  2-C , 22-H ) :   0.9609 B(  3-C ,  4-O ) :   1.2532 B(  3-C ,  5-O ) :   2.0994
B(  4-O , 23-H ) :   0.8388 B(  6-C ,  7-C ) :   1.3090 B(  6-C , 11-C ) :   1.3413
B(  7-C ,  8-C ) :   1.3266 B(  7-C , 24-H ) :   0.9698 B(  8-C ,  9-C ) :   1.2816
B(  8-C , 12-C ) :   0.9373 B(  8-C , 13-O ) :  -0.1006 B(  9-C , 10-C ) :   1.4145
B(  9-C , 25-H ) :   0.9715 B( 10-C , 11-C ) :   1.3650 B( 10-C , 26-H ) :   0.9729
B( 11-C , 27-H ) :   0.9669 B( 12-C , 13-O ) :   2.0335 B( 12-C , 14-C ) :   0.9686
B( 14-C , 15-C ) :   1.3010 B( 14-C , 19-C ) :   1.3082 B( 15-C , 16-C ) :   1.4266
B( 15-C , 28-H ) :   0.9697 B( 16-C , 17-C ) :   1.3681 B( 16-C , 29-H ) :   0.9679
B( 17-C , 18-C ) :   1.3841 B( 17-C , 30-H ) :   0.9614 B( 18-C , 19-C ) :   1.4014
B( 18-C , 31-H ) :   0.9662 B( 19-C , 32-H ) :   0.9628

FINAL SINGLE POINT ENERGY      -843.138385901343

DIPOLE MOMENT
-------------
                                X             Y             Z
Electronic contribution:     -0.78567       3.71932      -3.85073
Nuclear contribution   :     -0.76362      -3.60781       4.71518
                        -----------------------------------------
Total Dipole Moment    :     -1.54929       0.11151       0.86445
                        -----------------------------------------
Magnitude (a.u.)       :      1.77764
Magnitude (Debye)      :      4.51839

Rotational constants in cm-1:     0.017033     0.009072     0.006784
Rotational constants in MHz :   510.626680   271.957840   203.370912

                             ****ORCA TERMINATED NORMALLY****
TOTAL RUN TIME: 0 days 0 hours 34 minutes 50 seconds 538 msec
