                         Program Version 5.0.4 -  RELEASE  -
|  1> # ORCA input file
|  2> #
|  3> !TPSS STO-3G Opt CPCM(WATER)
|  4>
|  5> * xyz 0 1
|  6>    H        1.20129        -0.16932         0.23897
|  7>    C        2.26794        -0.11673        -0.02274
|  8>    C        3.06219        -0.56629         1.20342
|  9>    C        2.43159        -1.11202        -1.17182
| 10>    O        1.77888        -0.74114        -2.30430
| 11>    O        3.04791        -2.16647        -1.10611
| 12>    C        2.60248         1.32807        -0.37484
| 13>    C        3.66812         1.67324        -1.22306
| 14>    C        3.89277         3.01366        -1.58287
| 15>    C        3.12282         4.02608        -1.00191
| 16>    C        2.10481         3.69973        -0.10959
| 17>    C        1.83730         2.36158         0.18969
| 18>    C        4.92807         3.41042        -2.58203
| 19>    O        5.48927         4.49875        -2.46391
| 20>    C        5.27589         2.52516        -3.72903
| 21>    C        6.55331         2.62100        -4.29124
| 22>    C        6.92612         1.76780        -5.33332
| 23>    C        6.02518         0.81856        -5.81378
| 24>    C        4.73811         0.74719        -5.28495
| 25>    C        4.35571         1.61422        -4.26425
| 26>    H        2.74302        -1.56412         1.52440
| 27>    H        2.91450         0.11804         2.04595
| 28>    H        4.13600        -0.61445         0.99043
| 29>    H        1.29481         0.09946        -2.22163
| 30>    H        4.31939         0.89273        -1.61410
| 31>    H        3.31457         5.06879        -1.24530
| 32>    H        1.51553         4.48948         0.35131
| 33>    H        1.03152         2.13485         0.88711
| 34>    H        7.26495         3.35624        -3.91738
| 35>    H        7.92251         1.83890        -5.76326
| 36>    H        6.32312         0.13898        -6.60964
| 37>    H        4.03290         0.01141        -5.66607
| 38>    H        3.33494         1.55906        -3.89816
| 39> *
| 40>
| 41>                          ****END OF INPUT****
 Total Charge           Charge          ....    0
 Multiplicity           Mult            ....    1
 Number of Electrons    NEL             ....  134
FINAL SINGLE POINT ENERGY      -833.435525385874
FINAL SINGLE POINT ENERGY      -833.465426213676
FINAL SINGLE POINT ENERGY      -833.469179271786
FINAL SINGLE POINT ENERGY      -833.469943906607
FINAL SINGLE POINT ENERGY      -833.470238421020
FINAL SINGLE POINT ENERGY      -833.470467240493
FINAL SINGLE POINT ENERGY      -833.470708456398
FINAL SINGLE POINT ENERGY      -833.470917763160
FINAL SINGLE POINT ENERGY      -833.471048713546
FINAL SINGLE POINT ENERGY      -833.471128940768
FINAL SINGLE POINT ENERGY      -833.471174466721
FINAL SINGLE POINT ENERGY      -833.471183028517
FINAL SINGLE POINT ENERGY      -833.471199496603
FINAL SINGLE POINT ENERGY      -833.471204911817
FINAL SINGLE POINT ENERGY      -833.471219758739
FINAL SINGLE POINT ENERGY      -833.471226708646
FINAL SINGLE POINT ENERGY      -833.471230296330
FINAL SINGLE POINT ENERGY      -833.471231924938
FINAL SINGLE POINT ENERGY      -833.471232475232
                    ***********************HURRAY********************

CARTESIAN COORDINATES (ANGSTROEM)
---------------------------------
  H      1.515057   -0.110266    0.925107
  C      2.326139   -0.099437    0.163980
  C      3.615343   -0.713655    0.807882
  C      1.820911   -1.056144   -1.031415
  O      1.103634   -0.396558   -2.079314
  O      1.985766   -2.303799   -1.072156
  C      2.514959    1.366270   -0.301557
  C      3.537931    1.718747   -1.226531
  C      3.714409    3.062973   -1.647195
  C      2.863961    4.073491   -1.113987
  C      1.839122    3.736200   -0.205732
  C      1.663987    2.391449    0.197554
  C      4.859345    3.488798   -2.598684
  O      5.397908    4.638055   -2.498342
  C      5.327275    2.479482   -3.672523
  C      6.671358    2.557510   -4.135685
  C      7.134296    1.692379   -5.149655
  C      6.252452    0.748952   -5.730015
  C      4.908332    0.678082   -5.294460
  C      4.446877    1.535337   -4.270384
  H      3.429472   -1.775106    1.055313
  H      3.876980   -0.169331    1.733551
  H      4.468988   -0.658974    0.108950
  H      1.163722    0.601001   -1.794529
  H      4.211842    0.936439   -1.613846
  H      3.015913    5.121043   -1.426743
  H      1.175190    4.520399    0.195801
  H      0.864893    2.130650    0.912630
  H      7.347627    3.303906   -3.683764
  H      8.181223    1.753333   -5.491795
  H      6.611383    0.074085   -6.525495
  H      4.216779   -0.046917   -5.755949
  H      3.394448    1.484468   -3.945019

 Multiplicity           Mult            ....    1
 Number of Electrons    NEL             ....  134
 Basis Dimension        Dim             ....  109

ORBITAL ENERGIES
----------------

  NO   OCC          E(Eh)            E(eV)
   0   2.0000     -18.692638      -508.6525
   1   2.0000     -18.652356      -507.5564
   2   2.0000     -18.628073      -506.8956
   3   2.0000      -9.898955      -269.3643
   4   2.0000      -9.893352      -269.2118
   5   2.0000      -9.855754      -268.1887
   6   2.0000      -9.839722      -267.7525
   7   2.0000      -9.836419      -267.6626
   8   2.0000      -9.833803      -267.5914
   9   2.0000      -9.833536      -267.5841
  10   2.0000      -9.832814      -267.5645
  11   2.0000      -9.832722      -267.5620
  12   2.0000      -9.832298      -267.5504
  13   2.0000      -9.831702      -267.5342
  14   2.0000      -9.830969      -267.5143
  15   2.0000      -9.830766      -267.5087
  16   2.0000      -9.830047      -267.4892
  17   2.0000      -9.829180      -267.4656
  18   2.0000      -9.828961      -267.4596
  19   2.0000      -0.930529       -25.3210
  20   2.0000      -0.900161       -24.4946
  21   2.0000      -0.862890       -23.4804
  22   2.0000      -0.755689       -20.5633
  23   2.0000      -0.746734       -20.3197
  24   2.0000      -0.693080       -18.8597
  25   2.0000      -0.665248       -18.1023
  26   2.0000      -0.648310       -17.6414
  27   2.0000      -0.644124       -17.5275
  28   2.0000      -0.632938       -17.2231
  29   2.0000      -0.559083       -15.2134
  30   2.0000      -0.549634       -14.9563
  31   2.0000      -0.518575       -14.1111
  32   2.0000      -0.515932       -14.0392
  33   2.0000      -0.499592       -13.5946
  34   2.0000      -0.461130       -12.5480
  35   2.0000      -0.444190       -12.0870
  36   2.0000      -0.431972       -11.7546
  37   2.0000      -0.416848       -11.3430
  38   2.0000      -0.403144       -10.9701
  39   2.0000      -0.386868       -10.5272
  40   2.0000      -0.367786       -10.0080
  41   2.0000      -0.358365        -9.7516
  42   2.0000      -0.355099        -9.6627
  43   2.0000      -0.350844        -9.5470
  44   2.0000      -0.340004        -9.2520
  45   2.0000      -0.336441        -9.1550
  46   2.0000      -0.326418        -8.8823
  47   2.0000      -0.311699        -8.4818
  48   2.0000      -0.301052        -8.1920
  49   2.0000      -0.298953        -8.1349
  50   2.0000      -0.290975        -7.9178
  51   2.0000      -0.280402        -7.6301
  52   2.0000      -0.276156        -7.5146
  53   2.0000      -0.272623        -7.4184
  54   2.0000      -0.261792        -7.1237
  55   2.0000      -0.258584        -7.0364
  56   2.0000      -0.252467        -6.8700
  57   2.0000      -0.245736        -6.6868
  58   2.0000      -0.241481        -6.5710
  59   2.0000      -0.221715        -6.0332
  60   2.0000      -0.175637        -4.7793
  61   2.0000      -0.173705        -4.7268
  62   2.0000      -0.172019        -4.6809
  63   2.0000      -0.164369        -4.4727
  64   2.0000      -0.137537        -3.7426
  65   2.0000      -0.101975        -2.7749
  66   2.0000      -0.100888        -2.7453
  67   0.0000      -0.004719        -0.1284
  68   0.0000       0.042757         1.1635
  69   0.0000       0.046189         1.2569
  70   0.0000       0.052960         1.4411
  71   0.0000       0.073124         1.9898

MULLIKEN ATOMIC CHARGES
-----------------------
   0 H :    0.086575
   1 C :   -0.070101
   2 C :   -0.196879
   3 C :    0.176917
   4 O :   -0.202878
   5 O :   -0.214258
   6 C :   -0.023429
   7 C :   -0.076097
   8 C :   -0.023591
   9 C :   -0.071307
  10 C :   -0.076163
  11 C :   -0.073555
  12 C :    0.129488
  13 O :   -0.174068
  14 C :   -0.025144
  15 C :   -0.072032
  16 C :   -0.077006
  17 C :   -0.072651
  18 C :   -0.076596
  19 C :   -0.073994
  20 H :    0.077431
  21 H :    0.075597
  22 H :    0.074531
  23 H :    0.208266
  24 H :    0.087269
  25 H :    0.086474
  26 H :    0.086764
  27 H :    0.086001
  28 H :    0.084811
  29 H :    0.084525
  30 H :    0.084927
  31 H :    0.084483
  32 H :    0.085690
Sum of atomic charges:   -0.0000000

LOEWDIN ATOMIC CHARGES
----------------------
   0 H :    0.048554
   1 C :   -0.035060
   2 C :   -0.100501
   3 C :    0.107190
   4 O :   -0.122778
   5 O :   -0.166216
   6 C :   -0.014944
   7 C :   -0.043049
   8 C :   -0.027322
   9 C :   -0.035330
  10 C :   -0.039701
  11 C :   -0.039055
  12 C :    0.095930
  13 O :   -0.124520
  14 C :   -0.029055
  15 C :   -0.036128
  16 C :   -0.040723
  17 C :   -0.034483
  18 C :   -0.040625
  19 C :   -0.037949
  20 H :    0.043131
  21 H :    0.041406
  22 H :    0.040632
  23 H :    0.156949
  24 H :    0.049922
  25 H :    0.048622
  26 H :    0.049076
  27 H :    0.048397
  28 H :    0.047283
  29 H :    0.047243
  30 H :    0.047461
  31 H :    0.047195
  32 H :    0.048449

  Mayer bond orders larger than 0.100000
B(  0-H ,  1-C ) :   0.9473 B(  1-C ,  2-C ) :   0.9783 B(  1-C ,  3-C ) :   0.8596
B(  1-C ,  6-C ) :   0.9794 B(  2-C , 20-H ) :   0.9728 B(  2-C , 21-H ) :   0.9758
B(  2-C , 22-H ) :   0.9760 B(  3-C ,  4-O ) :   1.0808 B(  3-C ,  5-O ) :   1.8927
B(  4-O ,  5-O ) :   0.2527 B(  4-O , 23-H ) :   0.8940 B(  6-C ,  7-C ) :   1.3829
B(  6-C ,  9-C ) :   0.1047 B(  6-C , 11-C ) :   1.3841 B(  7-C ,  8-C ) :   1.3936
B(  7-C , 10-C ) :   0.1065 B(  7-C , 24-H ) :   0.9526 B(  8-C ,  9-C ) :   1.3686
B(  8-C , 11-C ) :   0.1029 B(  8-C , 12-C ) :   0.9553 B(  9-C , 10-C ) :   1.4412
B(  9-C , 25-H ) :   0.9560 B( 10-C , 11-C ) :   1.4187 B( 10-C , 26-H ) :   0.9584
B( 11-C , 27-H ) :   0.9571 B( 12-C , 13-O ) :   1.9031 B( 12-C , 14-C ) :   0.9602
B( 14-C , 15-C ) :   1.3759 B( 14-C , 17-C ) :   0.1075 B( 14-C , 19-C ) :   1.3792
B( 15-C , 16-C ) :   1.4423 B( 15-C , 18-C ) :   0.1107 B( 15-C , 28-H ) :   0.9561
B( 16-C , 17-C ) :   1.4163 B( 16-C , 19-C ) :   0.1095 B( 16-C , 29-H ) :   0.9591
B( 17-C , 18-C ) :   1.4229 B( 17-C , 30-H ) :   0.9597 B( 18-C , 19-C ) :   1.4343
B( 18-C , 31-H ) :   0.9592 B( 19-C , 32-H ) :   0.9555

FINAL SINGLE POINT ENERGY      -833.471232687769

DIPOLE MOMENT
-------------
                                X             Y             Z
Electronic contribution:     -1.18390       4.08748      -3.78182
Nuclear contribution   :      0.93571      -3.58968       4.09892
                        -----------------------------------------
Total Dipole Moment    :     -0.24819       0.49779       0.31710
                        -----------------------------------------
Magnitude (a.u.)       :      0.64027
Magnitude (Debye)      :      1.62745

Rotational constants in cm-1:     0.016340     0.008702     0.006474
Rotational constants in MHz :   489.855225   260.876911   194.080976

                             ****ORCA TERMINATED NORMALLY****
TOTAL RUN TIME: 0 days 0 hours 6 minutes 56 seconds 678 msec
