                         Program Version 5.0.4 -  RELEASE  -
|  1> # ORCA input file
|  2> #
|  3> !PBE STO-3G Opt CPCM(WATER)
|  4>
|  5> * xyz 0 1
|  6>    C        2.67569         1.76515         3.50557
|  7>    C        2.36944         0.52730         2.66006
|  8>    C        0.85304         0.35239         2.53184
|  9>    C        3.01280         0.61958         1.26293
| 10>    C        4.52308         0.73287         1.26152
| 11>    C        5.32588        -0.26385         1.83075
| 12>    C        6.72138        -0.18302         1.76021
| 13>    C        7.34776         0.88750         1.10340
| 14>    C        6.53877         1.90312         0.57006
| 15>    C        5.14455         1.82624         0.64881
| 16>    C        8.85935         0.87626         0.89416
| 17>    C        9.16989         0.86797        -0.60844
| 18>    C        9.67830         1.97118         1.57297
| 19>    O        9.02053         2.78926         2.42048
| 20>    O       10.88237         2.10266         1.39315
| 21>    H        2.20498         1.68559         4.49092
| 22>    H        2.30498         2.67554         3.02336
| 23>    H        3.75199         1.87974         3.66775
| 24>    H        2.76094        -0.35184         3.18620
| 25>    H        0.40084         1.17948         1.97345
| 26>    H        0.38024         0.31473         3.51918
| 27>    H        0.61040        -0.58007         2.01109
| 28>    H        2.58137         1.47469         0.72497
| 29>    H        2.74568        -0.26733         0.67243
| 30>    H        4.87092        -1.12910         2.30841
| 31>    H        7.30958        -0.99192         2.19026
| 32>    H        6.98078         2.75448         0.05361
| 33>    H        4.54773         2.61497         0.19900
| 34>    H        9.24509        -0.06091         1.31903
| 35>    H        8.79507         1.76990        -1.10604
| 36>    H        8.71091         0.00118        -1.09752
| 37>    H       10.24776         0.82625        -0.79396
| 38>    H        8.06926         2.59022         2.53077
| 39> *
| 40>
| 41>                          ****END OF INPUT****
 Total Charge           Charge          ....    0
 Multiplicity           Mult            ....    1
 Number of Electrons    NEL             ....  112
FINAL SINGLE POINT ENERGY      -647.672115578658
FINAL SINGLE POINT ENERGY      -647.694539881874
FINAL SINGLE POINT ENERGY      -647.697925423683
FINAL SINGLE POINT ENERGY      -647.698737539212
FINAL SINGLE POINT ENERGY      -647.699033636843
FINAL SINGLE POINT ENERGY      -647.699250418563
FINAL SINGLE POINT ENERGY      -647.699349480611
FINAL SINGLE POINT ENERGY      -647.699404863580
FINAL SINGLE POINT ENERGY      -647.699449177094
FINAL SINGLE POINT ENERGY      -647.699482307681
FINAL SINGLE POINT ENERGY      -647.699506764581
FINAL SINGLE POINT ENERGY      -647.699522150028
FINAL SINGLE POINT ENERGY      -647.699531188969
FINAL SINGLE POINT ENERGY      -647.699534743209
FINAL SINGLE POINT ENERGY      -647.699537382063
FINAL SINGLE POINT ENERGY      -647.699538940438
                    ***********************HURRAY********************

CARTESIAN COORDINATES (ANGSTROEM)
---------------------------------
  C      2.743113    2.126340    3.259615
  C      2.421905    0.690330    2.742825
  C      0.889888    0.402168    2.820116
  C      2.935712    0.479132    1.268055
  C      4.468791    0.576374    1.141797
  C      5.302002   -0.478800    1.603563
  C      6.706462   -0.393685    1.497511
  C      7.330174    0.752224    0.926728
  C      6.494401    1.809844    0.465147
  C      5.090340    1.721366    0.573284
  C      8.869183    0.827332    0.813411
  C      9.380348    1.151234   -0.625214
  C      9.498138    1.887996    1.848958
  O      8.654614    2.227024    2.946624
  O     10.654591    2.380266    1.757519
  H      2.401945    2.244128    4.305329
  H      2.230983    2.885138    2.638275
  H      3.831213    2.320578    3.221634
  H      2.948781   -0.042960    3.393431
  H      0.329904    1.104381    2.174019
  H      0.528071    0.520616    3.858891
  H      0.670092   -0.629752    2.487365
  H      2.462895    1.235445    0.608566
  H      2.606325   -0.525497    0.927132
  H      4.841850   -1.381354    2.044421
  H      7.336441   -1.227767    1.856357
  H      6.950755    2.711128    0.018199
  H      4.461675    2.551457    0.203982
  H      9.279191   -0.163964    1.115188
  H      8.937009    2.091217   -1.002559
  H      9.121228    0.331807   -1.321548
  H     10.480747    1.268356   -0.601132
  H      7.782585    1.708107    2.712893

 Multiplicity           Mult            ....    1
 Number of Electrons    NEL             ....  112
 Basis Dimension        Dim             ....   93

ORBITAL ENERGIES
----------------

  NO   OCC          E(Eh)            E(eV)
   0   2.0000     -18.548054      -504.7182
   1   2.0000     -18.481563      -502.9089
   2   2.0000      -9.786814      -266.3127
   3   2.0000      -9.740416      -265.0502
   4   2.0000      -9.726314      -264.6665
   5   2.0000      -9.723834      -264.5990
   6   2.0000      -9.722284      -264.5568
   7   2.0000      -9.720195      -264.4999
   8   2.0000      -9.714019      -264.3319
   9   2.0000      -9.713477      -264.3171
  10   2.0000      -9.713396      -264.3149
  11   2.0000      -9.710988      -264.2494
  12   2.0000      -9.710610      -264.2391
  13   2.0000      -9.702542      -264.0196
  14   2.0000      -9.701302      -263.9859
  15   2.0000      -0.909142       -24.7390
  16   2.0000      -0.840890       -22.8818
  17   2.0000      -0.732372       -19.9289
  18   2.0000      -0.688898       -18.7459
  19   2.0000      -0.664586       -18.0843
  20   2.0000      -0.626383       -17.0448
  21   2.0000      -0.619690       -16.8626
  22   2.0000      -0.571762       -15.5584
  23   2.0000      -0.566466       -15.4143
  24   2.0000      -0.529590       -14.4109
  25   2.0000      -0.501062       -13.6346
  26   2.0000      -0.477834       -13.0025
  27   2.0000      -0.458190       -12.4680
  28   2.0000      -0.436431       -11.8759
  29   2.0000      -0.404817       -11.0156
  30   2.0000      -0.389074       -10.5872
  31   2.0000      -0.374390       -10.1877
  32   2.0000      -0.359713        -9.7883
  33   2.0000      -0.347435        -9.4542
  34   2.0000      -0.341703        -9.2982
  35   2.0000      -0.337734        -9.1902
  36   2.0000      -0.323899        -8.8138
  37   2.0000      -0.314752        -8.5648
  38   2.0000      -0.309948        -8.4341
  39   2.0000      -0.295235        -8.0338
  40   2.0000      -0.294922        -8.0252
  41   2.0000      -0.284829        -7.7506
  42   2.0000      -0.280950        -7.6450
  43   2.0000      -0.272432        -7.4133
  44   2.0000      -0.260759        -7.0956
  45   2.0000      -0.251609        -6.8466
  46   2.0000      -0.244207        -6.6452
  47   2.0000      -0.239117        -6.5067
  48   2.0000      -0.235658        -6.4126
  49   2.0000      -0.233714        -6.3597
  50   2.0000      -0.225846        -6.1456
  51   2.0000      -0.210755        -5.7349
  52   2.0000      -0.164150        -4.4667
  53   2.0000      -0.155775        -4.2389
  54   2.0000      -0.129592        -3.5264
  55   2.0000      -0.090635        -2.4663
  56   0.0000       0.045574         1.2401
  57   0.0000       0.055064         1.4984
  58   0.0000       0.075329         2.0498
  59   0.0000       0.183374         4.9899
  60   0.0000       0.242419         6.5966

MULLIKEN ATOMIC CHARGES
-----------------------
   0 C :   -0.236762
   1 C :   -0.047975
   2 C :   -0.235706
   3 C :   -0.148784
   4 C :   -0.002742
   5 C :   -0.094019
   6 C :   -0.093244
   7 C :   -0.032396
   8 C :   -0.094911
   9 C :   -0.093066
  10 C :   -0.085452
  11 C :   -0.233313
  12 C :    0.164350
  13 O :   -0.201453
  14 O :   -0.213185
  15 H :    0.078139
  16 H :    0.076950
  17 H :    0.078706
  18 H :    0.075443
  19 H :    0.077623
  20 H :    0.078918
  21 H :    0.078178
  22 H :    0.083098
  23 H :    0.085534
  24 H :    0.090873
  25 H :    0.091951
  26 H :    0.092786
  27 H :    0.090786
  28 H :    0.096332
  29 H :    0.085396
  30 H :    0.086419
  31 H :    0.088178
  32 H :    0.213350
Sum of atomic charges:   -0.0000000

LOEWDIN ATOMIC CHARGES
----------------------
   0 C :   -0.136194
   1 C :   -0.001403
   2 C :   -0.134596
   3 C :   -0.077523
   4 C :    0.005869
   5 C :   -0.058807
   6 C :   -0.057395
   7 C :   -0.023634
   8 C :   -0.058501
   9 C :   -0.058040
  10 C :   -0.047701
  11 C :   -0.128902
  12 C :    0.096138
  13 O :   -0.121644
  14 O :   -0.166483
  15 H :    0.043302
  16 H :    0.042171
  17 H :    0.043766
  18 H :    0.037021
  19 H :    0.042622
  20 H :    0.043918
  21 H :    0.043178
  22 H :    0.045572
  23 H :    0.048136
  24 H :    0.052169
  25 H :    0.052933
  26 H :    0.053808
  27 H :    0.052044
  28 H :    0.056217
  29 H :    0.048987
  30 H :    0.049641
  31 H :    0.051382
  32 H :    0.161951

  Mayer bond orders larger than 0.100000
B(  0-C ,  1-C ) :   0.9931 B(  0-C , 15-H ) :   0.9753 B(  0-C , 16-H ) :   0.9757
B(  0-C , 17-H ) :   0.9737 B(  1-C ,  2-C ) :   0.9902 B(  1-C ,  3-C ) :   0.9611
B(  1-C , 18-H ) :   0.9557 B(  2-C , 19-H ) :   0.9758 B(  2-C , 20-H ) :   0.9749
B(  2-C , 21-H ) :   0.9753 B(  3-C ,  4-C ) :   0.9943 B(  3-C , 22-H ) :   0.9629
B(  3-C , 23-H ) :   0.9578 B(  4-C ,  5-C ) :   1.3951 B(  4-C ,  7-C ) :   0.1064
B(  4-C ,  9-C ) :   1.3940 B(  5-C ,  6-C ) :   1.4435 B(  5-C ,  8-C ) :   0.1098
B(  5-C , 24-H ) :   0.9558 B(  6-C ,  7-C ) :   1.3758 B(  6-C ,  9-C ) :   0.1064
B(  6-C , 25-H ) :   0.9550 B(  7-C ,  8-C ) :   1.3728 B(  7-C , 10-C ) :   0.9841
B(  8-C ,  9-C ) :   1.4447 B(  8-C , 26-H ) :   0.9544 B(  9-C , 27-H ) :   0.9557
B( 10-C , 11-C ) :   0.9827 B( 10-C , 12-C ) :   0.8587 B( 10-C , 28-H ) :   0.9438
B( 11-C , 29-H ) :   0.9733 B( 11-C , 30-H ) :   0.9737 B( 11-C , 31-H ) :   0.9702
B( 12-C , 13-O ) :   1.0967 B( 12-C , 14-O ) :   1.8864 B( 13-O , 14-O ) :   0.2632
B( 13-O , 32-H ) :   0.8774

FINAL SINGLE POINT ENERGY      -647.699540025619

DIPOLE MOMENT
-------------
                                X             Y             Z
Electronic contribution:     20.11835       2.08014      -0.58146
Nuclear contribution   :    -21.49360      -2.81048       0.33946
                        -----------------------------------------
Total Dipole Moment    :     -1.37525      -0.73033      -0.24200
                        -----------------------------------------
Magnitude (a.u.)       :      1.57584
Magnitude (Debye)      :      4.00546

Rotational constants in cm-1:     0.046477     0.008320     0.007818
Rotational constants in MHz :  1393.355374   249.415650   234.386314

                             ****ORCA TERMINATED NORMALLY****
TOTAL RUN TIME: 0 days 0 hours 3 minutes 48 seconds 433 msec
