                         Program Version 5.0.4 -  RELEASE  -
|  1> # ORCA input file
|  2> #
|  3> !B3LYP 6-311+G** Opt CPCM(WATER)
|  4>
|  5> * xyz 0 1
|  6>    C        2.87144        -0.10916         1.20664
|  7>    C        2.44342        -1.05593         0.08115
|  8>    C        0.91974        -1.19419         0.07432
|  9>    C        2.94480        -0.57785        -1.29683
| 10>    C        4.45134        -0.46700        -1.37799
| 11>    C        5.26061        -1.59748        -1.21919
| 12>    C        6.65296        -1.48545        -1.25067
| 13>    C        7.26777        -0.24306        -1.46506
| 14>    C        6.45170         0.88684        -1.63168
| 15>    C        5.06022         0.77519        -1.58829
| 16>    C        8.78513        -0.15735        -1.56149
| 17>    C        9.18945         0.36486        -2.94449
| 18>    C        9.50143         0.64581        -0.48409
| 19>    O        8.76334         1.05753         0.57059
| 20>    O       10.70370         0.88871        -0.52753
| 21>    H        2.51153        -0.47336         2.17409
| 22>    H        2.47169         0.89803         1.05021
| 23>    H        3.96146        -0.03527         1.27587
| 24>    H        2.86352        -2.04692         0.29439
| 25>    H        0.43276        -0.23517        -0.13272
| 26>    H        0.56053        -1.55246         1.04510
| 27>    H        0.59584        -1.91197        -0.68619
| 28>    H        2.48660         0.39047        -1.53921
| 29>    H        2.61106        -1.27192        -2.07930
| 30>    H        4.81160        -2.57672        -1.06755
| 31>    H        7.24935        -2.38734        -1.12491
| 32>    H        6.88909         1.86918        -1.80559
| 33>    H        4.45363         1.66833        -1.72028
| 34>    H        9.18533        -1.17571        -1.46024
| 35>    H        8.84885         1.39480        -3.10544
| 36>    H        8.76335        -0.25851        -3.73883
| 37>    H       10.27752         0.36437        -3.06623
| 38>    H        7.82131         0.79140         0.54207
| 39> *
| 40>
| 41>                          ****END OF INPUT****
 Total Charge           Charge          ....    0
 Multiplicity           Mult            ....    1
 Number of Electrons    NEL             ....  112
FINAL SINGLE POINT ENERGY      -656.488875994695
FINAL SINGLE POINT ENERGY      -656.491415031280
FINAL SINGLE POINT ENERGY      -656.491948199409
FINAL SINGLE POINT ENERGY      -656.492031225826
FINAL SINGLE POINT ENERGY      -656.492259184322
FINAL SINGLE POINT ENERGY      -656.492362314647
FINAL SINGLE POINT ENERGY      -656.492497725836
FINAL SINGLE POINT ENERGY      -656.492629046339
FINAL SINGLE POINT ENERGY      -656.492789822918
FINAL SINGLE POINT ENERGY      -656.492910026839
FINAL SINGLE POINT ENERGY      -656.493081717658
FINAL SINGLE POINT ENERGY      -656.493051797002
FINAL SINGLE POINT ENERGY      -656.493122179272
FINAL SINGLE POINT ENERGY      -656.493144193655
FINAL SINGLE POINT ENERGY      -656.493137032742
FINAL SINGLE POINT ENERGY      -656.493121677506
FINAL SINGLE POINT ENERGY      -656.493120817161
FINAL SINGLE POINT ENERGY      -656.493116521557
FINAL SINGLE POINT ENERGY      -656.493115793885
                    ***********************HURRAY********************

CARTESIAN COORDINATES (ANGSTROEM)
---------------------------------
  C      2.703198    0.022022    1.230546
  C      2.404584   -0.994091    0.120243
  C      0.898408   -1.273655    0.021677
  C      2.951387   -0.533056   -1.253519
  C      4.458346   -0.415424   -1.331940
  C      5.269717   -1.556913   -1.289872
  C      6.658801   -1.457323   -1.353129
  C      7.284956   -0.211619   -1.475074
  C      6.479204    0.931703   -1.524580
  C      5.090575    0.828898   -1.448281
  C      8.803488   -0.117503   -1.601008
  C      9.257100    0.221075   -3.028092
  C      9.390195    0.859192   -0.581118
  O      9.106881    0.609581    0.717047
  O     10.090682    1.807746   -0.850204
  H      2.330333   -0.336628    2.194963
  H      2.216549    0.981142    1.018258
  H      3.776292    0.206268    1.333244
  H      2.906101   -1.936067    0.376641
  H      0.351336   -0.364984   -0.255105
  H      0.501199   -1.623797    0.979474
  H      0.684777   -2.037188   -0.732902
  H      2.497598    0.431898   -1.506617
  H      2.613634   -1.249504   -2.011563
  H      4.811794   -2.538046   -1.207627
  H      7.263169   -2.358649   -1.316933
  H      6.933421    1.913348   -1.623147
  H      4.488180    1.731334   -1.486137
  H      9.215538   -1.097118   -1.327903
  H      8.881023    1.198429   -3.338898
  H      8.873192   -0.531985   -3.719694
  H     10.346902    0.232942   -3.097983
  H      8.523511   -0.159329    0.809865

 Multiplicity           Mult            ....    1
 Number of Electrons    NEL             ....  112
 Basis Dimension        Dim             ....  438

ORBITAL ENERGIES
----------------

  NO   OCC          E(Eh)            E(eV)
   0   2.0000     -19.175567      -521.7937
   1   2.0000     -19.123316      -520.3719
   2   2.0000     -10.315217      -280.6913
   3   2.0000     -10.200442      -277.5681
   4   2.0000     -10.188326      -277.2384
   5   2.0000     -10.181254      -277.0460
   6   2.0000     -10.175852      -276.8990
   7   2.0000     -10.175736      -276.8958
   8   2.0000     -10.172419      -276.8056
   9   2.0000     -10.171967      -276.7933
  10   2.0000     -10.169002      -276.7126
  11   2.0000     -10.163004      -276.5494
  12   2.0000     -10.161885      -276.5189
  13   2.0000     -10.148950      -276.1670
  14   2.0000     -10.147932      -276.1393
  15   2.0000      -1.115264       -30.3479
  16   2.0000      -1.033306       -28.1177
  17   2.0000      -0.868236       -23.6259
  18   2.0000      -0.818528       -22.2733
  19   2.0000      -0.792953       -21.5774
  20   2.0000      -0.748671       -20.3724
  21   2.0000      -0.742355       -20.2005
  22   2.0000      -0.679831       -18.4991
  23   2.0000      -0.676141       -18.3987
  24   2.0000      -0.657669       -17.8961
  25   2.0000      -0.620471       -16.8839
  26   2.0000      -0.612175       -16.6581
  27   2.0000      -0.586183       -15.9509
  28   2.0000      -0.555016       -15.1028
  29   2.0000      -0.528315       -14.3762
  30   2.0000      -0.503054       -13.6888
  31   2.0000      -0.476338       -12.9618
  32   2.0000      -0.472475       -12.8567
  33   2.0000      -0.457914       -12.4605
  34   2.0000      -0.448635       -12.2080
  35   2.0000      -0.445585       -12.1250
  36   2.0000      -0.432389       -11.7659
  37   2.0000      -0.426083       -11.5943
  38   2.0000      -0.423668       -11.5286
  39   2.0000      -0.419194       -11.4069
  40   2.0000      -0.405401       -11.0315
  41   2.0000      -0.386534       -10.5181
  42   2.0000      -0.378076       -10.2880
  43   2.0000      -0.372850       -10.1458
  44   2.0000      -0.364793        -9.9265
  45   2.0000      -0.363984        -9.9045
  46   2.0000      -0.360081        -9.7983
  47   2.0000      -0.344285        -9.3685
  48   2.0000      -0.339601        -9.2410
  49   2.0000      -0.335546        -9.1307
  50   2.0000      -0.327408        -8.9092
  51   2.0000      -0.321194        -8.7401
  52   2.0000      -0.317104        -8.6288
  53   2.0000      -0.293942        -7.9986
  54   2.0000      -0.258946        -7.0463
  55   2.0000      -0.243843        -6.6353
  56   0.0000      -0.022126        -0.6021
  57   0.0000      -0.020779        -0.5654
  58   0.0000      -0.007202        -0.1960
  59   0.0000       0.003995         0.1087
  60   0.0000       0.015937         0.4337

MULLIKEN ATOMIC CHARGES
-----------------------
   0 C :   -0.627581
   1 C :    0.429616
   2 C :   -0.697485
   3 C :   -1.074563
   4 C :    1.758305
   5 C :   -0.631598
   6 C :   -0.432060
   7 C :    0.795991
   8 C :   -0.513673
   9 C :   -0.661483
  10 C :    0.012733
  11 C :   -0.658403
  12 C :   -0.066196
  13 O :   -0.201073
  14 O :   -0.353659
  15 H :    0.144318
  16 H :    0.143984
  17 H :    0.145698
  18 H :    0.133840
  19 H :    0.144508
  20 H :    0.143656
  21 H :    0.142787
  22 H :    0.150677
  23 H :    0.156897
  24 H :    0.147824
  25 H :    0.152070
  26 H :    0.155302
  27 H :    0.146133
  28 H :    0.203444
  29 H :    0.175583
  30 H :    0.157981
  31 H :    0.159844
  32 H :    0.316581
Sum of atomic charges:   -0.0000000

LOEWDIN ATOMIC CHARGES
----------------------
   0 C :   -0.123743
   1 C :   -0.165231
   2 C :   -0.127470
   3 C :   -0.109127
   4 C :   -0.110825
   5 C :   -0.063288
   6 C :   -0.057848
   7 C :   -0.125675
   8 C :   -0.058002
   9 C :   -0.064874
  10 C :   -0.118567
  11 C :   -0.082732
  12 C :    0.000660
  13 O :   -0.058679
  14 O :   -0.220609
  15 H :    0.060609
  16 H :    0.069670
  17 H :    0.067546
  18 H :    0.075285
  19 H :    0.066264
  20 H :    0.059976
  21 H :    0.060371
  22 H :    0.086953
  23 H :    0.086040
  24 H :    0.090814
  25 H :    0.091310
  26 H :    0.096950
  27 H :    0.089587
  28 H :    0.112596
  29 H :    0.077914
  30 H :    0.073142
  31 H :    0.069929
  32 H :    0.151054

  Mayer bond orders larger than 0.100000
B(  0-C ,  1-C ) :   0.8165 B(  0-C ,  3-C ) :  -0.1004 B(  0-C , 15-H ) :   1.0058
B(  0-C , 16-H ) :   0.9912 B(  0-C , 17-H ) :   0.9914 B(  1-C ,  2-C ) :   0.6998
B(  1-C ,  3-C ) :   0.8685 B(  1-C ,  4-C ) :  -0.1546 B(  1-C ,  5-C ) :   0.1189
B(  1-C , 18-H ) :   0.9524 B(  2-C ,  3-C ) :   0.2580 B(  2-C ,  4-C ) :  -0.2384
B(  2-C , 19-H ) :   1.0133 B(  2-C , 20-H ) :   0.9970 B(  2-C , 21-H ) :   0.9910
B(  3-C ,  4-C ) :  -0.6572 B(  3-C ,  5-C ) :   0.3428 B(  3-C ,  6-C ) :   0.1052
B(  3-C ,  7-C ) :  -0.1807 B(  3-C ,  8-C ) :   0.1162 B(  3-C ,  9-C ) :   0.1404
B(  3-C , 22-H ) :   1.2117 B(  3-C , 23-H ) :   1.0577 B(  4-C ,  5-C ) :   1.2640
B(  4-C ,  7-C ) :   0.5018 B(  4-C ,  8-C ) :  -0.2909 B(  4-C ,  9-C ) :   1.2808
B(  4-C , 10-C ) :  -0.1221 B(  4-C , 18-H ) :  -0.1216 B(  4-C , 22-H ) :  -0.4344
B(  4-C , 23-H ) :  -0.1623 B(  5-C ,  6-C ) :   1.3061 B(  5-C ,  9-C ) :   0.3377
B(  5-C , 24-H ) :   0.9361 B(  6-C ,  7-C ) :   1.3909 B(  6-C ,  8-C ) :   0.1267
B(  6-C ,  9-C ) :  -0.1371 B(  6-C , 12-C ) :  -0.1801 B(  6-C , 13-O ) :  -0.2118
B(  6-C , 25-H ) :   0.9081 B(  6-C , 28-H ) :   0.2199 B(  7-C ,  8-C ) :   1.6473
B(  7-C , 10-C ) :   0.1721 B(  7-C , 11-C ) :  -0.2318 B(  7-C , 12-C ) :  -0.3353
B(  7-C , 13-O ) :   0.3846 B(  7-C , 14-O ) :   0.1247 B(  7-C , 28-H ) :  -0.2784
B(  7-C , 32-H ) :   0.1284 B(  8-C ,  9-C ) :   1.3110 B(  8-C , 10-C ) :   0.2378
B(  8-C , 11-C ) :   0.2641 B(  8-C , 12-C ) :   0.4398 B(  8-C , 14-O ) :  -0.2568
B(  8-C , 26-H ) :   0.8700 B(  9-C , 10-C ) :   0.1526 B(  9-C , 22-H ) :   0.2612
B(  9-C , 27-H ) :   0.9066 B( 10-C , 11-C ) :   0.9257 B( 10-C , 12-C ) :   0.8770
B( 10-C , 13-O ) :  -0.2689 B( 10-C , 28-H ) :   1.0187 B( 11-C , 29-H ) :   0.9714
B( 11-C , 30-H ) :   0.9953 B( 11-C , 31-H ) :   0.9825 B( 12-C , 13-O ) :   1.3525
B( 12-C , 14-O ) :   2.0889 B( 13-O , 32-H ) :   0.8500

FINAL SINGLE POINT ENERGY      -656.493116804340

DIPOLE MOMENT
-------------
                                X             Y             Z
Electronic contribution:     19.22292       3.95057      -0.98552
Nuclear contribution   :    -20.86449      -5.94347       0.72646
                        -----------------------------------------
Total Dipole Moment    :     -1.64157      -1.99290      -0.25906
                        -----------------------------------------
Magnitude (a.u.)       :      2.59491
Magnitude (Debye)      :      6.59573

Rotational constants in cm-1:     0.048049     0.008397     0.007928
Rotational constants in MHz :  1440.461150   251.749794   237.664738

                             ****ORCA TERMINATED NORMALLY****
TOTAL RUN TIME: 0 days 1 hours 52 minutes 33 seconds 112 msec
