                         Program Version 5.0.4 -  RELEASE  -
|  1> # ORCA input file
|  2> #
|  3> !B3LYP def2-TZVP Opt CPCM(WATER)
|  4>
|  5> * xyz 0 1
|  6>    C        2.87144        -0.10916         1.20664
|  7>    C        2.44342        -1.05593         0.08115
|  8>    C        0.91974        -1.19419         0.07432
|  9>    C        2.94480        -0.57785        -1.29683
| 10>    C        4.45134        -0.46700        -1.37799
| 11>    C        5.26061        -1.59748        -1.21919
| 12>    C        6.65296        -1.48545        -1.25067
| 13>    C        7.26777        -0.24306        -1.46506
| 14>    C        6.45170         0.88684        -1.63168
| 15>    C        5.06022         0.77519        -1.58829
| 16>    C        8.78513        -0.15735        -1.56149
| 17>    C        9.18945         0.36486        -2.94449
| 18>    C        9.50143         0.64581        -0.48409
| 19>    O        8.76334         1.05753         0.57059
| 20>    O       10.70370         0.88871        -0.52753
| 21>    H        2.51153        -0.47336         2.17409
| 22>    H        2.47169         0.89803         1.05021
| 23>    H        3.96146        -0.03527         1.27587
| 24>    H        2.86352        -2.04692         0.29439
| 25>    H        0.43276        -0.23517        -0.13272
| 26>    H        0.56053        -1.55246         1.04510
| 27>    H        0.59584        -1.91197        -0.68619
| 28>    H        2.48660         0.39047        -1.53921
| 29>    H        2.61106        -1.27192        -2.07930
| 30>    H        4.81160        -2.57672        -1.06755
| 31>    H        7.24935        -2.38734        -1.12491
| 32>    H        6.88909         1.86918        -1.80559
| 33>    H        4.45363         1.66833        -1.72028
| 34>    H        9.18533        -1.17571        -1.46024
| 35>    H        8.84885         1.39480        -3.10544
| 36>    H        8.76335        -0.25851        -3.73883
| 37>    H       10.27752         0.36437        -3.06623
| 38>    H        7.82131         0.79140         0.54207
| 39> *
| 40>
| 41>                          ****END OF INPUT****
 Total Charge           Charge          ....    0
 Multiplicity           Mult            ....    1
 Number of Electrons    NEL             ....  112
FINAL SINGLE POINT ENERGY      -656.556957867098
FINAL SINGLE POINT ENERGY      -656.559778423056
FINAL SINGLE POINT ENERGY      -656.560284981148
FINAL SINGLE POINT ENERGY      -656.560367779150
FINAL SINGLE POINT ENERGY      -656.560586913201
FINAL SINGLE POINT ENERGY      -656.560678986952
FINAL SINGLE POINT ENERGY      -656.560802208407
FINAL SINGLE POINT ENERGY      -656.560949796386
FINAL SINGLE POINT ENERGY      -656.561139555096
FINAL SINGLE POINT ENERGY      -656.561292646782
FINAL SINGLE POINT ENERGY      -656.561542825080
FINAL SINGLE POINT ENERGY      -656.561635993060
FINAL SINGLE POINT ENERGY      -656.561653839988
FINAL SINGLE POINT ENERGY      -656.561653568579
FINAL SINGLE POINT ENERGY      -656.561651067756
FINAL SINGLE POINT ENERGY      -656.561647669281
FINAL SINGLE POINT ENERGY      -656.561644149226
FINAL SINGLE POINT ENERGY      -656.561639851272
FINAL SINGLE POINT ENERGY      -656.561637191415
                    ***********************HURRAY********************

CARTESIAN COORDINATES (ANGSTROEM)
---------------------------------
  C      2.714897    0.010236    1.228712
  C      2.407446   -0.994405    0.115532
  C      0.902638   -1.260144    0.017749
  C      2.955018   -0.533448   -1.253758
  C      4.458431   -0.415732   -1.332880
  C      5.269889   -1.552516   -1.282543
  C      6.655162   -1.452445   -1.346637
  C      7.278837   -0.210395   -1.476292
  C      6.473089    0.928212   -1.534330
  C      5.088150    0.824648   -1.459941
  C      8.794576   -0.114171   -1.595839
  C      9.252009    0.216728   -3.019369
  C      9.369540    0.871119   -0.581945
  O      9.124271    0.598411    0.715788
  O     10.024696    1.847076   -0.856504
  H      2.341433   -0.351639    2.189702
  H      2.236112    0.972919    1.024110
  H      3.787761    0.185318    1.330986
  H      2.900667   -1.940340    0.366354
  H      0.364007   -0.346868   -0.253435
  H      0.503979   -1.611334    0.972544
  H      0.682123   -2.016402   -0.739600
  H      2.502462    0.430650   -1.505425
  H      2.616170   -1.247879   -2.010952
  H      4.814019   -2.532375   -1.193405
  H      7.259526   -2.351729   -1.304032
  H      6.925947    1.908203   -1.638751
  H      4.485667    1.724975   -1.504600
  H      9.205999   -1.090186   -1.315844
  H      8.876983    1.190729   -3.335619
  H      8.873330   -0.538706   -3.708756
  H     10.340562    0.230427   -3.084317
  H      8.576674   -0.196235    0.813930

 Multiplicity           Mult            ....    1
 Number of Electrons    NEL             ....  112
 Basis Dimension        Dim             ....  573

ORBITAL ENERGIES
----------------

  NO   OCC          E(Eh)            E(eV)
   0   2.0000     -19.175592      -521.7944
   1   2.0000     -19.121120      -520.3121
   2   2.0000     -10.309954      -280.5481
   3   2.0000     -10.197386      -277.4850
   4   2.0000     -10.185970      -277.1743
   5   2.0000     -10.178894      -276.9818
   6   2.0000     -10.173465      -276.8341
   7   2.0000     -10.173399      -276.8323
   8   2.0000     -10.170221      -276.7458
   9   2.0000     -10.169822      -276.7349
  10   2.0000     -10.167952      -276.6840
  11   2.0000     -10.162040      -276.5232
  12   2.0000     -10.161088      -276.4973
  13   2.0000     -10.148809      -276.1631
  14   2.0000     -10.147837      -276.1367
  15   2.0000      -1.110312       -30.2131
  16   2.0000      -1.027839       -27.9689
  17   2.0000      -0.866637       -23.5824
  18   2.0000      -0.817371       -22.2418
  19   2.0000      -0.792182       -21.5564
  20   2.0000      -0.746590       -20.3157
  21   2.0000      -0.740872       -20.1602
  22   2.0000      -0.678828       -18.4719
  23   2.0000      -0.675614       -18.3844
  24   2.0000      -0.655027       -17.8242
  25   2.0000      -0.617383       -16.7998
  26   2.0000      -0.609793       -16.5933
  27   2.0000      -0.584310       -15.8999
  28   2.0000      -0.554135       -15.0788
  29   2.0000      -0.526273       -14.3206
  30   2.0000      -0.501372       -13.6430
  31   2.0000      -0.474958       -12.9243
  32   2.0000      -0.469264       -12.7693
  33   2.0000      -0.456286       -12.4162
  34   2.0000      -0.447270       -12.1708
  35   2.0000      -0.444090       -12.0843
  36   2.0000      -0.432361       -11.7651
  37   2.0000      -0.424925       -11.5628
  38   2.0000      -0.421881       -11.4800
  39   2.0000      -0.417212       -11.3529
  40   2.0000      -0.404578       -11.0091
  41   2.0000      -0.385440       -10.4884
  42   2.0000      -0.377844       -10.2817
  43   2.0000      -0.371902       -10.1200
  44   2.0000      -0.363376        -9.8880
  45   2.0000      -0.362979        -9.8771
  46   2.0000      -0.358665        -9.7598
  47   2.0000      -0.342961        -9.3325
  48   2.0000      -0.337512        -9.1842
  49   2.0000      -0.332823        -9.0566
  50   2.0000      -0.326755        -8.8915
  51   2.0000      -0.320312        -8.7161
  52   2.0000      -0.316126        -8.6022
  53   2.0000      -0.290631        -7.9085
  54   2.0000      -0.258056        -7.0221
  55   2.0000      -0.242470        -6.5979
  56   0.0000      -0.018656        -0.5077
  57   0.0000      -0.016969        -0.4618
  58   0.0000       0.001386         0.0377
  59   0.0000       0.034575         0.9408
  60   0.0000       0.045218         1.2305

MULLIKEN ATOMIC CHARGES
-----------------------
   0 C :   -0.383746
   1 C :    0.007022
   2 C :   -0.367397
   3 C :   -0.206582
   4 C :    0.165761
   5 C :   -0.215676
   6 C :   -0.192618
   7 C :    0.045607
   8 C :   -0.181943
   9 C :   -0.220336
  10 C :   -0.032887
  11 C :   -0.383587
  12 C :    0.296545
  13 O :   -0.374190
  14 O :   -0.367947
  15 H :    0.118290
  16 H :    0.106423
  17 H :    0.122319
  18 H :    0.073793
  19 H :    0.108743
  20 H :    0.117529
  21 H :    0.116481
  22 H :    0.112602
  23 H :    0.109705
  24 H :    0.135946
  25 H :    0.134030
  26 H :    0.139269
  27 H :    0.131718
  28 H :    0.134089
  29 H :    0.124880
  30 H :    0.129571
  31 H :    0.127166
  32 H :    0.369421
Sum of atomic charges:    0.0000000

LOEWDIN ATOMIC CHARGES
----------------------
   0 C :   -0.285811
   1 C :   -0.296582
   2 C :   -0.287124
   3 C :   -0.190843
   4 C :   -0.140023
   5 C :   -0.110393
   6 C :   -0.113585
   7 C :   -0.136573
   8 C :   -0.107689
   9 C :   -0.114302
  10 C :   -0.210059
  11 C :   -0.260487
  12 C :   -0.468318
  13 O :    0.103315
  14 O :    0.067286
  15 H :    0.120312
  16 H :    0.120518
  17 H :    0.120040
  18 H :    0.148504
  19 H :    0.120283
  20 H :    0.120050
  21 H :    0.119433
  22 H :    0.145774
  23 H :    0.148479
  24 H :    0.152720
  25 H :    0.153550
  26 H :    0.155201
  27 H :    0.151719
  28 H :    0.180871
  29 H :    0.125950
  30 H :    0.127839
  31 H :    0.125595
  32 H :    0.214351

  Mayer bond orders larger than 0.100000
B(  0-C ,  1-C ) :   0.9671 B(  0-C , 15-H ) :   0.9777 B(  0-C , 16-H ) :   0.9693
B(  0-C , 17-H ) :   0.9741 B(  1-C ,  2-C ) :   0.9454 B(  1-C ,  3-C ) :   0.9526
B(  1-C , 18-H ) :   0.9625 B(  2-C , 19-H ) :   0.9714 B(  2-C , 20-H ) :   0.9779
B(  2-C , 21-H ) :   0.9771 B(  3-C ,  4-C ) :   0.9040 B(  3-C , 22-H ) :   0.9788
B(  3-C , 23-H ) :   0.9568 B(  4-C ,  5-C ) :   1.3251 B(  4-C ,  9-C ) :   1.3387
B(  5-C ,  6-C ) :   1.4194 B(  5-C , 24-H ) :   0.9841 B(  6-C ,  7-C ) :   1.3409
B(  6-C , 25-H ) :   0.9800 B(  7-C ,  8-C ) :   1.3378 B(  7-C , 10-C ) :   0.8969
B(  8-C ,  9-C ) :   1.4167 B(  8-C , 26-H ) :   0.9760 B(  9-C , 27-H ) :   0.9820
B( 10-C , 11-C ) :   0.9457 B( 10-C , 12-C ) :   0.9734 B( 10-C , 28-H ) :   0.9426
B( 11-C , 29-H ) :   0.9700 B( 11-C , 30-H ) :   0.9696 B( 11-C , 31-H ) :   0.9706
B( 12-C , 13-O ) :   1.2208 B( 12-C , 14-O ) :   2.0702 B( 13-O , 32-H ) :   0.8415

FINAL SINGLE POINT ENERGY      -656.561636121633

DIPOLE MOMENT
-------------
                                X             Y             Z
Electronic contribution:     19.18125       4.04845      -0.93859
Nuclear contribution   :    -20.70416      -6.03056       0.75634
                        -----------------------------------------
Total Dipole Moment    :     -1.52291      -1.98211      -0.18224
                        -----------------------------------------
Magnitude (a.u.)       :      2.50624
Magnitude (Debye)      :      6.37035

Rotational constants in cm-1:     0.048021     0.008441     0.007976
Rotational constants in MHz :  1439.646429   253.059403   239.120050

                             ****ORCA TERMINATED NORMALLY****
TOTAL RUN TIME: 0 days 2 hours 19 minutes 12 seconds 629 msec
