                         Program Version 5.0.4 -  RELEASE  -
|  1> # ORCA input file
|  2> #
|  3> !PBE STO-3G Opt CPCM(WATER)
|  4>
|  5> * xyz 0 1
|  6>    H        1.20551         0.10685         0.44594
|  7>    C        2.19632         0.04506        -0.02783
|  8>    C        3.21572        -0.37109         1.03186
|  9>    C        2.03439        -1.05108        -1.08502
| 10>    O        1.51321        -2.19903        -0.58151
| 11>    O        2.30324        -0.95546        -2.27392
| 12>    C        2.50710         1.44593        -0.54890
| 13>    C        3.40786         1.70154        -1.59807
| 14>    C        3.57635         3.00431        -2.10322
| 15>    C        2.93975         4.07783        -1.47365
| 16>    C        2.10702         3.84904        -0.38159
| 17>    C        1.88367         2.54538         0.06643
| 18>    C        4.40386         3.29606        -3.30921
| 19>    O        4.98348         4.37514        -3.39375
| 20>    C        4.52609         2.31329        -4.42517
| 21>    C        5.68066         2.33025        -5.21731
| 22>    C        5.84753         1.38292        -6.23056
| 23>    C        4.86240         0.42187        -6.45742
| 24>    C        3.69446         0.42873        -5.70106
| 25>    C        3.51418         1.38534        -4.70458
| 26>    H        2.94169        -1.32446         1.49691
| 27>    H        3.27834         0.37448         1.83212
| 28>    H        4.21497        -0.49366         0.60096
| 29>    H        1.29183        -2.17361         0.36870
| 30>    H        3.95639         0.87710        -2.04912
| 31>    H        3.08408         5.09274        -1.84030
| 32>    H        1.61795         4.68612         0.11116
| 33>    H        1.21218         2.39612         0.90952
| 34>    H        6.45597         3.07343        -5.04122
| 35>    H        6.75113         1.38817        -6.83519
| 36>    H        5.00308        -0.33209        -7.22859
| 37>    H        2.92174        -0.31696        -5.87375
| 38>    H        2.58039         1.38013        -4.14719
| 39> *
| 40>
| 41>                          ****END OF INPUT****
 Total Charge           Charge          ....    0
 Multiplicity           Mult            ....    1
 Number of Electrons    NEL             ....  134
FINAL SINGLE POINT ENERGY      -832.134378223440
FINAL SINGLE POINT ENERGY      -832.164526816357
FINAL SINGLE POINT ENERGY      -832.169108540742
FINAL SINGLE POINT ENERGY      -832.170066839938
FINAL SINGLE POINT ENERGY      -832.170369632628
FINAL SINGLE POINT ENERGY      -832.170633858982
FINAL SINGLE POINT ENERGY      -832.170869762000
FINAL SINGLE POINT ENERGY      -832.170960181055
FINAL SINGLE POINT ENERGY      -832.171008780560
FINAL SINGLE POINT ENERGY      -832.171019792548
FINAL SINGLE POINT ENERGY      -832.171022138065
                    ***********************HURRAY********************

CARTESIAN COORDINATES (ANGSTROEM)
---------------------------------
  H      1.537716    0.132646    0.978210
  C      2.253801    0.083046    0.126960
  C      3.600867   -0.532298    0.641611
  C      1.622370   -0.870592   -0.997069
  O      0.956164   -2.031286   -0.485395
  O      1.687239   -0.694891   -2.242484
  C      2.437200    1.509148   -0.433374
  C      3.268942    1.738445   -1.562371
  C      3.419439    3.042985   -2.104927
  C      2.747343    4.134063   -1.483788
  C      1.915384    3.915679   -0.366275
  C      1.754617    2.608348    0.151866
  C      4.350357    3.348736   -3.298504
  O      4.917204    4.483748   -3.412323
  C      4.570727    2.245598   -4.357927
  C      5.769380    2.290675   -5.125774
  C      6.008458    1.345629   -6.145730
  C      5.040385    0.350634   -6.426134
  C      3.835612    0.309078   -5.685109
  C      3.599814    1.248405   -4.655487
  H      3.433261   -1.554177    1.032873
  H      4.013397    0.092416    1.456517
  H      4.343948   -0.583914   -0.175634
  H      1.033001   -1.926345    0.541955
  H      3.815827    0.893103   -2.014005
  H      2.888536    5.149831   -1.896386
  H      1.386467    4.762994    0.105465
  H      1.097730    2.437275    1.023926
  H      6.508391    3.082602   -4.903401
  H      6.947145    1.383827   -6.726857
  H      5.223078   -0.388439   -7.226738
  H      3.074748   -0.458919   -5.912269
  H      2.653991    1.212339   -4.085952

 Multiplicity           Mult            ....    1
 Number of Electrons    NEL             ....  134
 Basis Dimension        Dim             ....  109

ORBITAL ENERGIES
----------------

  NO   OCC          E(Eh)            E(eV)
   0   2.0000     -18.554861      -504.9034
   1   2.0000     -18.506866      -503.5974
   2   2.0000     -18.487469      -503.0696
   3   2.0000      -9.792348      -266.4633
   4   2.0000      -9.783101      -266.2117
   5   2.0000      -9.745725      -265.1946
   6   2.0000      -9.728132      -264.7159
   7   2.0000      -9.725276      -264.6382
   8   2.0000      -9.723834      -264.5990
   9   2.0000      -9.720483      -264.5078
  10   2.0000      -9.719842      -264.4903
  11   2.0000      -9.719375      -264.4776
  12   2.0000      -9.719357      -264.4771
  13   2.0000      -9.718517      -264.4543
  14   2.0000      -9.718213      -264.4460
  15   2.0000      -9.717674      -264.4314
  16   2.0000      -9.716904      -264.4104
  17   2.0000      -9.716389      -264.3964
  18   2.0000      -9.716217      -264.3917
  19   2.0000      -0.911980       -24.8162
  20   2.0000      -0.878649       -23.9093
  21   2.0000      -0.844314       -22.9749
  22   2.0000      -0.733101       -19.9487
  23   2.0000      -0.727562       -19.7980
  24   2.0000      -0.675244       -18.3743
  25   2.0000      -0.645822       -17.5737
  26   2.0000      -0.630340       -17.1524
  27   2.0000      -0.624548       -16.9948
  28   2.0000      -0.613186       -16.6856
  29   2.0000      -0.541765       -14.7422
  30   2.0000      -0.533261       -14.5108
  31   2.0000      -0.503275       -13.6948
  32   2.0000      -0.500270       -13.6130
  33   2.0000      -0.483803       -13.1649
  34   2.0000      -0.452241       -12.3061
  35   2.0000      -0.437044       -11.8926
  36   2.0000      -0.418691       -11.3931
  37   2.0000      -0.401823       -10.9342
  38   2.0000      -0.392181       -10.6718
  39   2.0000      -0.372000       -10.1226
  40   2.0000      -0.356194        -9.6925
  41   2.0000      -0.350297        -9.5321
  42   2.0000      -0.341912        -9.3039
  43   2.0000      -0.339360        -9.2344
  44   2.0000      -0.329258        -8.9596
  45   2.0000      -0.325301        -8.8519
  46   2.0000      -0.320851        -8.7308
  47   2.0000      -0.300589        -8.1794
  48   2.0000      -0.290400        -7.9022
  49   2.0000      -0.287169        -7.8143
  50   2.0000      -0.283839        -7.7237
  51   2.0000      -0.268869        -7.3163
  52   2.0000      -0.267188        -7.2705
  53   2.0000      -0.262337        -7.1386
  54   2.0000      -0.255687        -6.9576
  55   2.0000      -0.251854        -6.8533
  56   2.0000      -0.244603        -6.6560
  57   2.0000      -0.242020        -6.5857
  58   2.0000      -0.233118        -6.3435
  59   2.0000      -0.215827        -5.8730
  60   2.0000      -0.168534        -4.5860
  61   2.0000      -0.166791        -4.5386
  62   2.0000      -0.159950        -4.3525
  63   2.0000      -0.157779        -4.2934
  64   2.0000      -0.133591        -3.6352
  65   2.0000      -0.095557        -2.6002
  66   2.0000      -0.091513        -2.4902
  67   0.0000      -0.004652        -0.1266
  68   0.0000       0.047064         1.2807
  69   0.0000       0.048484         1.3193
  70   0.0000       0.051801         1.4096
  71   0.0000       0.070561         1.9201

MULLIKEN ATOMIC CHARGES
-----------------------
   0 H :    0.094206
   1 C :   -0.084605
   2 C :   -0.234491
   3 C :    0.169538
   4 O :   -0.196809
   5 O :   -0.207169
   6 C :   -0.003216
   7 C :   -0.086391
   8 C :   -0.028241
   9 C :   -0.086672
  10 C :   -0.091275
  11 C :   -0.087438
  12 C :    0.120947
  13 O :   -0.172327
  14 C :   -0.026795
  15 C :   -0.084239
  16 C :   -0.089471
  17 C :   -0.084873
  18 C :   -0.088885
  19 C :   -0.086491
  20 H :    0.087620
  21 H :    0.090131
  22 H :    0.089046
  23 H :    0.223535
  24 H :    0.097558
  25 H :    0.094806
  26 H :    0.095032
  27 H :    0.093932
  28 H :    0.095887
  29 H :    0.095868
  30 H :    0.096263
  31 H :    0.095700
  32 H :    0.099320
Sum of atomic charges:   -0.0000000

LOEWDIN ATOMIC CHARGES
----------------------
   0 H :    0.054124
   1 C :   -0.045517
   2 C :   -0.128369
   3 C :    0.101647
   4 O :   -0.114104
   5 O :   -0.160215
   6 C :    0.001666
   7 C :   -0.051812
   8 C :   -0.032169
   9 C :   -0.048763
  10 C :   -0.052391
  11 C :   -0.050750
  12 C :    0.089449
  13 O :   -0.124085
  14 C :   -0.030818
  15 C :   -0.045669
  16 C :   -0.050359
  17 C :   -0.043948
  18 C :   -0.050089
  19 C :   -0.047598
  20 H :    0.050718
  21 H :    0.052586
  22 H :    0.051663
  23 H :    0.169230
  24 H :    0.058105
  25 H :    0.054982
  26 H :    0.055356
  27 H :    0.054486
  28 H :    0.055748
  29 H :    0.055901
  30 H :    0.056111
  31 H :    0.055739
  32 H :    0.059145

  Mayer bond orders larger than 0.100000
B(  0-H ,  1-C ) :   0.9465 B(  1-C ,  2-C ) :   0.9725 B(  1-C ,  3-C ) :   0.8673
B(  1-C ,  6-C ) :   0.9848 B(  2-C , 20-H ) :   0.9716 B(  2-C , 21-H ) :   0.9717
B(  2-C , 22-H ) :   0.9732 B(  3-C ,  4-O ) :   1.0771 B(  3-C ,  5-O ) :   1.8971
B(  4-O ,  5-O ) :   0.2595 B(  4-O , 23-H ) :   0.9136 B(  6-C ,  7-C ) :   1.3969
B(  6-C ,  9-C ) :   0.1075 B(  6-C , 11-C ) :   1.4012 B(  7-C ,  8-C ) :   1.3872
B(  7-C , 10-C ) :   0.1061 B(  7-C , 24-H ) :   0.9493 B(  8-C ,  9-C ) :   1.3711
B(  8-C , 11-C ) :   0.1035 B(  8-C , 12-C ) :   0.9618 B(  9-C , 10-C ) :   1.4439
B(  9-C , 25-H ) :   0.9532 B( 10-C , 11-C ) :   1.4185 B( 10-C , 26-H ) :   0.9565
B( 11-C , 27-H ) :   0.9551 B( 12-C , 13-O ) :   1.9005 B( 12-C , 14-C ) :   0.9616
B( 14-C , 15-C ) :   1.3762 B( 14-C , 17-C ) :   0.1074 B( 14-C , 19-C ) :   1.3798
B( 15-C , 16-C ) :   1.4452 B( 15-C , 18-C ) :   0.1108 B( 15-C , 28-H ) :   0.9526
B( 16-C , 17-C ) :   1.4171 B( 16-C , 19-C ) :   0.1096 B( 16-C , 29-H ) :   0.9566
B( 17-C , 18-C ) :   1.4247 B( 17-C , 30-H ) :   0.9572 B( 18-C , 19-C ) :   1.4358
B( 18-C , 31-H ) :   0.9567 B( 19-C , 32-H ) :   0.9502

FINAL SINGLE POINT ENERGY      -832.171023882641

DIPOLE MOMENT
-------------
                                X             Y             Z
Electronic contribution:     -1.61889       4.63243      -4.87249
Nuclear contribution   :      1.34880      -5.48253       6.34125
                        -----------------------------------------
Total Dipole Moment    :     -0.27009      -0.85010       1.46876
                        -----------------------------------------
Magnitude (a.u.)       :      1.71839
Magnitude (Debye)      :      4.36781

Rotational constants in cm-1:     0.016758     0.008758     0.006366
Rotational constants in MHz :   502.389050   262.547838   190.843434

                             ****ORCA TERMINATED NORMALLY****
TOTAL RUN TIME: 0 days 0 hours 3 minutes 17 seconds 643 msec
