                         Program Version 5.0.4 -  RELEASE  -
|  1> # ORCA input file
|  2> #
|  3> !TPSS 6-311+G** Opt CPCM(WATER)
|  4>
|  5> * xyz 0 1
|  6>    H        1.20129        -0.16932         0.23897
|  7>    C        2.26794        -0.11673        -0.02274
|  8>    C        3.06219        -0.56629         1.20342
|  9>    C        2.43159        -1.11202        -1.17182
| 10>    O        1.77888        -0.74114        -2.30430
| 11>    O        3.04791        -2.16647        -1.10611
| 12>    C        2.60248         1.32807        -0.37484
| 13>    C        3.66812         1.67324        -1.22306
| 14>    C        3.89277         3.01366        -1.58287
| 15>    C        3.12282         4.02608        -1.00191
| 16>    C        2.10481         3.69973        -0.10959
| 17>    C        1.83730         2.36158         0.18969
| 18>    C        4.92807         3.41042        -2.58203
| 19>    O        5.48927         4.49875        -2.46391
| 20>    C        5.27589         2.52516        -3.72903
| 21>    C        6.55331         2.62100        -4.29124
| 22>    C        6.92612         1.76780        -5.33332
| 23>    C        6.02518         0.81856        -5.81378
| 24>    C        4.73811         0.74719        -5.28495
| 25>    C        4.35571         1.61422        -4.26425
| 26>    H        2.74302        -1.56412         1.52440
| 27>    H        2.91450         0.11804         2.04595
| 28>    H        4.13600        -0.61445         0.99043
| 29>    H        1.29481         0.09946        -2.22163
| 30>    H        4.31939         0.89273        -1.61410
| 31>    H        3.31457         5.06879        -1.24530
| 32>    H        1.51553         4.48948         0.35131
| 33>    H        1.03152         2.13485         0.88711
| 34>    H        7.26495         3.35624        -3.91738
| 35>    H        7.92251         1.83890        -5.76326
| 36>    H        6.32312         0.13898        -6.60964
| 37>    H        4.03290         0.01141        -5.66607
| 38>    H        3.33494         1.55906        -3.89816
| 39> *
| 40>
| 41>                          ****END OF INPUT****
 Total Charge           Charge          ....    0
 Multiplicity           Mult            ....    1
 Number of Electrons    NEL             ....  134
FINAL SINGLE POINT ENERGY      -844.206538746759
FINAL SINGLE POINT ENERGY      -844.210277631874
FINAL SINGLE POINT ENERGY      -844.211110617042
FINAL SINGLE POINT ENERGY      -844.211332838883
FINAL SINGLE POINT ENERGY      -844.211627993332
FINAL SINGLE POINT ENERGY      -844.211798640281
FINAL SINGLE POINT ENERGY      -844.211949535189
FINAL SINGLE POINT ENERGY      -844.212073311103
FINAL SINGLE POINT ENERGY      -844.212095125898
FINAL SINGLE POINT ENERGY      -844.212124897208
FINAL SINGLE POINT ENERGY      -844.212130719947
FINAL SINGLE POINT ENERGY      -844.212132619627
                    ***********************HURRAY********************

CARTESIAN COORDINATES (ANGSTROEM)
---------------------------------
  H      1.437138   -0.121382    0.728736
  C      2.342641   -0.096376    0.104153
  C      3.529136   -0.617966    0.935150
  C      2.030892   -1.031059   -1.073565
  O      1.063890   -0.610658   -1.935178
  O      2.555918   -2.112430   -1.266585
  C      2.533392    1.347895   -0.357732
  C      3.546142    1.677784   -1.274133
  C      3.757786    3.011482   -1.662238
  C      2.943772    4.028296   -1.124821
  C      1.920110    3.705161   -0.236042
  C      1.717202    2.371812    0.148316
  C      4.881681    3.397670   -2.574773
  O      5.446658    4.490878   -2.426067
  C      5.317676    2.466083   -3.659947
  C      6.658591    2.512023   -4.091281
  C      7.092517    1.689578   -5.131382
  C      6.185978    0.831599   -5.772113
  C      4.847003    0.794474   -5.364320
  C      4.414374    1.598730   -4.305092
  H      3.332949   -1.637098    1.282454
  H      3.674810    0.029955    1.805427
  H      4.450656   -0.623214    0.343204
  H      0.746871    0.279676   -1.684811
  H      4.192879    0.895197   -1.665601
  H      3.116751    5.058992   -1.422760
  H      1.278582    4.486430    0.164127
  H      0.923715    2.125176    0.851305
  H      7.350056    3.186748   -3.593037
  H      8.133022    1.715637   -5.446226
  H      6.523243    0.196608   -6.588094
  H      4.140489    0.140587   -5.869709
  H      3.371000    1.574572   -4.001378

 Multiplicity           Mult            ....    1
 Number of Electrons    NEL             ....  134
 Basis Dimension        Dim             ....  502

ORBITAL ENERGIES
----------------

  NO   OCC          E(Eh)            E(eV)
   0   2.0000     -18.935127      -515.2510
   1   2.0000     -18.883351      -513.8421
   2   2.0000     -18.880146      -513.7549
   3   2.0000     -10.125132      -275.5188
   4   2.0000     -10.084309      -274.4080
   5   2.0000     -10.022708      -272.7318
   6   2.0000     -10.016486      -272.5624
   7   2.0000     -10.012784      -272.4617
   8   2.0000     -10.009818      -272.3810
   9   2.0000     -10.008944      -272.3572
  10   2.0000     -10.006215      -272.2830
  11   2.0000     -10.005114      -272.2530
  12   2.0000     -10.004715      -272.2421
  13   2.0000     -10.002840      -272.1911
  14   2.0000     -10.002436      -272.1801
  15   2.0000     -10.002154      -272.1724
  16   2.0000      -9.999420      -272.0981
  17   2.0000      -9.999334      -272.0957
  18   2.0000      -9.984554      -271.6935
  19   2.0000      -1.040795       -28.3215
  20   2.0000      -0.977610       -26.6021
  21   2.0000      -0.962763       -26.1981
  22   2.0000      -0.818143       -22.2628
  23   2.0000      -0.807000       -21.9596
  24   2.0000      -0.756738       -20.5919
  25   2.0000      -0.726728       -19.7753
  26   2.0000      -0.704110       -19.1598
  27   2.0000      -0.700278       -19.0555
  28   2.0000      -0.687659       -18.7122
  29   2.0000      -0.616153       -16.7664
  30   2.0000      -0.612701       -16.6724
  31   2.0000      -0.579527       -15.7697
  32   2.0000      -0.571548       -15.5526
  33   2.0000      -0.564759       -15.3679
  34   2.0000      -0.550761       -14.9870
  35   2.0000      -0.516858       -14.0644
  36   2.0000      -0.491318       -13.3695
  37   2.0000      -0.476736       -12.9727
  38   2.0000      -0.465153       -12.6575
  39   2.0000      -0.442269       -12.0348
  40   2.0000      -0.427667       -11.6374
  41   2.0000      -0.423365       -11.5203
  42   2.0000      -0.421502       -11.4697
  43   2.0000      -0.417372       -11.3573
  44   2.0000      -0.406983       -11.0746
  45   2.0000      -0.399302       -10.8656
  46   2.0000      -0.391119       -10.6429
  47   2.0000      -0.389374       -10.5954
  48   2.0000      -0.385535       -10.4909
  49   2.0000      -0.381133       -10.3712
  50   2.0000      -0.367531       -10.0010
  51   2.0000      -0.359338        -9.7781
  52   2.0000      -0.343603        -9.3499
  53   2.0000      -0.336491        -9.1564
  54   2.0000      -0.333306        -9.0697
  55   2.0000      -0.326353        -8.8805
  56   2.0000      -0.325852        -8.8669
  57   2.0000      -0.321192        -8.7401
  58   2.0000      -0.312302        -8.4982
  59   2.0000      -0.311224        -8.4688
  60   2.0000      -0.293672        -7.9912
  61   2.0000      -0.257102        -6.9961
  62   2.0000      -0.247594        -6.7374
  63   2.0000      -0.244977        -6.6662
  64   2.0000      -0.241882        -6.5820
  65   2.0000      -0.236538        -6.4365
  66   2.0000      -0.224404        -6.1063
  67   0.0000      -0.105791        -2.8787
  68   0.0000      -0.059047        -1.6067
  69   0.0000      -0.056078        -1.5260
  70   0.0000      -0.044719        -1.2169
  71   0.0000      -0.043123        -1.1734

MULLIKEN ATOMIC CHARGES
-----------------------
   0 H :    0.232875
   1 C :   -0.017675
   2 C :   -0.710164
   3 C :   -0.096165
   4 O :   -0.140636
   5 O :   -0.310387
   6 C :    1.319716
   7 C :   -2.747304
   8 C :    1.755208
   9 C :    0.134703
  10 C :   -0.348034
  11 C :   -0.104537
  12 C :   -1.175937
  13 O :   -0.246137
  14 C :    1.668253
  15 C :    0.056334
  16 C :   -0.194651
  17 C :   -0.153570
  18 C :   -0.332181
  19 C :   -1.051706
  20 H :    0.181349
  21 H :    0.181217
  22 H :    0.202779
  23 H :    0.318081
  24 H :    0.205206
  25 H :    0.168599
  26 H :    0.171642
  27 H :    0.170367
  28 H :    0.162666
  29 H :    0.168298
  30 H :    0.169295
  31 H :    0.168861
  32 H :    0.193635
Sum of atomic charges:    0.0000000

LOEWDIN ATOMIC CHARGES
----------------------
   0 H :    0.115626
   1 C :   -0.112692
   2 C :   -0.075774
   3 C :   -0.006365
   4 O :   -0.052684
   5 O :   -0.208559
   6 C :   -0.117692
   7 C :   -0.027795
   8 C :   -0.099010
   9 C :   -0.015673
  10 C :   -0.043707
  11 C :   -0.032148
  12 C :    0.020741
  13 O :   -0.222005
  14 C :   -0.112010
  15 C :   -0.022782
  16 C :   -0.056789
  17 C :   -0.041830
  18 C :   -0.057184
  19 C :   -0.036283
  20 H :    0.071012
  21 H :    0.073484
  22 H :    0.077254
  23 H :    0.153532
  24 H :    0.112169
  25 H :    0.095836
  26 H :    0.084778
  27 H :    0.094548
  28 H :    0.094745
  29 H :    0.082622
  30 H :    0.082573
  31 H :    0.083460
  32 H :    0.098600

  Mayer bond orders larger than 0.100000
B(  0-H ,  1-C ) :   1.0854 B(  0-H ,  6-C ) :  -0.3572 B(  0-H ,  7-C ) :   0.1964
B(  1-C ,  2-C ) :   0.9590 B(  1-C ,  3-C ) :   0.8589 B(  1-C ,  4-O ) :  -0.3865
B(  1-C ,  7-C ) :   0.8174 B(  1-C , 11-C ) :  -0.4189 B(  1-C , 22-H ) :   0.1533
B(  2-C ,  3-C ) :  -0.1167 B(  2-C ,  6-C ) :  -0.5694 B(  2-C ,  7-C ) :   0.6267
B(  2-C , 11-C ) :  -0.1370 B(  2-C , 20-H ) :   0.9790 B(  2-C , 21-H ) :   1.0128
B(  2-C , 22-H ) :   0.9613 B(  3-C ,  4-O ) :   1.4350 B(  3-C ,  5-O ) :   2.1797
B(  3-C ,  6-C ) :  -0.6141 B(  3-C ,  7-C ) :   0.9686 B(  3-C ,  8-C ) :  -0.1376
B(  3-C , 11-C ) :  -0.2010 B(  4-O ,  6-C ) :   0.4764 B(  4-O ,  7-C ) :   0.2187
B(  4-O ,  8-C ) :  -0.2156 B(  4-O , 11-C ) :  -0.1826 B(  4-O , 23-H ) :   0.8374
B(  5-O ,  7-C ) :  -0.2290 B(  6-C ,  8-C ) :   0.5744 B(  6-C ,  9-C ) :   0.1194
B(  6-C , 10-C ) :   0.2022 B(  6-C , 11-C ) :   1.0978 B(  6-C , 12-C ) :  -0.1124
B(  6-C , 14-C ) :   0.7076 B(  6-C , 15-C ) :  -1.1986 B(  6-C , 16-C ) :   0.2042
B(  6-C , 17-C ) :  -0.1642 B(  6-C , 18-C ) :   0.4460 B(  6-C , 19-C ) :  -0.2408
B(  6-C , 22-H ) :  -0.2257 B(  6-C , 23-H ) :   0.1808 B(  7-C ,  8-C ) :  -0.1337
B(  7-C ,  9-C ) :   0.3182 B(  7-C , 10-C ) :  -0.3695 B(  7-C , 11-C ) :   1.0410
B(  7-C , 12-C ) :   2.0644 B(  7-C , 14-C ) :  -0.6599 B(  7-C , 15-C ) :  -0.5396
B(  7-C , 16-C ) :  -0.3586 B(  7-C , 17-C ) :   0.2203 B(  7-C , 19-C ) :   2.1348
B(  7-C , 24-H ) :   0.7049 B(  7-C , 27-H ) :   0.1100 B(  8-C ,  9-C ) :   1.5508
B(  8-C , 11-C ) :  -0.1375 B(  8-C , 12-C ) :  -0.4669 B(  8-C , 14-C ) :   0.6810
B(  8-C , 15-C ) :  -0.7632 B(  8-C , 16-C ) :   0.2163 B(  8-C , 17-C ) :  -0.1887
B(  8-C , 18-C ) :   0.2988 B(  8-C , 19-C ) :  -0.5234 B(  9-C , 10-C ) :   1.1046
B(  9-C , 11-C ) :  -0.2665 B(  9-C , 12-C ) :  -0.5662 B(  9-C , 14-C ) :  -1.1893
B(  9-C , 15-C ) :   2.2647 B(  9-C , 16-C ) :  -0.1806 B(  9-C , 17-C ) :   0.1934
B(  9-C , 18-C ) :  -0.8385 B(  9-C , 19-C ) :  -0.6768 B(  9-C , 25-H ) :   0.9487
B(  9-C , 26-H ) :  -0.1510 B( 10-C , 11-C ) :   1.0666 B( 10-C , 14-C ) :   0.3627
B( 10-C , 15-C ) :  -0.3546 B( 10-C , 18-C ) :   0.1914 B( 10-C , 19-C ) :  -0.2219
B( 10-C , 26-H ) :   1.0718 B( 11-C , 14-C ) :  -0.2036 B( 11-C , 15-C ) :   0.1904
B( 11-C , 24-H ) :   0.1020 B( 11-C , 27-H ) :   0.9178 B( 12-C , 13-O ) :   1.8967
B( 12-C , 14-C ) :  -0.2704 B( 12-C , 15-C ) :  -0.1369 B( 12-C , 16-C ) :  -0.1356
B( 12-C , 18-C ) :   0.1548 B( 12-C , 19-C ) :   1.4411 B( 12-C , 24-H ) :   0.1069
B( 12-C , 28-H ) :   0.1741 B( 14-C , 15-C ) :   1.4916 B( 14-C , 19-C ) :   0.9843
B( 14-C , 28-H ) :  -0.1642 B( 15-C , 16-C ) :   1.2386 B( 15-C , 17-C ) :   0.2019
B( 15-C , 19-C ) :  -0.1143 B( 15-C , 28-H ) :   0.9945 B( 15-C , 29-H ) :  -0.1336
B( 16-C , 17-C ) :   1.3889 B( 16-C , 29-H ) :   1.0346 B( 17-C , 18-C ) :   1.3324
B( 17-C , 30-H ) :   0.9753 B( 18-C , 19-C ) :   1.2150 B( 18-C , 31-H ) :   1.0285
B( 19-C , 31-H ) :  -0.1110 B( 19-C , 32-H ) :   0.9984

FINAL SINGLE POINT ENERGY      -844.212133003557

DIPOLE MOMENT
-------------
                                X             Y             Z
Electronic contribution:     -0.88305       3.68039      -3.70567
Nuclear contribution   :     -0.38422      -3.34114       4.41061
                        -----------------------------------------
Total Dipole Moment    :     -1.26727       0.33925       0.70494
                        -----------------------------------------
Magnitude (a.u.)       :      1.48929
Magnitude (Debye)      :      3.78549

Rotational constants in cm-1:     0.016923     0.008988     0.006728
Rotational constants in MHz :   507.350494   269.440550   201.692210

                             ****ORCA TERMINATED NORMALLY****
TOTAL RUN TIME: 0 days 0 hours 42 minutes 9 seconds 213 msec
