                         Program Version 5.0.4 -  RELEASE  -
|  1> # ORCA input file
|  2> #
|  3> !PBE def2-TZVP Opt CPCM(WATER)
|  4>
|  5> * xyz 0 1
|  6>    C        2.67569         1.76515         3.50557
|  7>    C        2.36944         0.52730         2.66006
|  8>    C        0.85304         0.35239         2.53184
|  9>    C        3.01280         0.61958         1.26293
| 10>    C        4.52308         0.73287         1.26152
| 11>    C        5.32588        -0.26385         1.83075
| 12>    C        6.72138        -0.18302         1.76021
| 13>    C        7.34776         0.88750         1.10340
| 14>    C        6.53877         1.90312         0.57006
| 15>    C        5.14455         1.82624         0.64881
| 16>    C        8.85935         0.87626         0.89416
| 17>    C        9.16989         0.86797        -0.60844
| 18>    C        9.67830         1.97118         1.57297
| 19>    O        9.02053         2.78926         2.42048
| 20>    O       10.88237         2.10266         1.39315
| 21>    H        2.20498         1.68559         4.49092
| 22>    H        2.30498         2.67554         3.02336
| 23>    H        3.75199         1.87974         3.66775
| 24>    H        2.76094        -0.35184         3.18620
| 25>    H        0.40084         1.17948         1.97345
| 26>    H        0.38024         0.31473         3.51918
| 27>    H        0.61040        -0.58007         2.01109
| 28>    H        2.58137         1.47469         0.72497
| 29>    H        2.74568        -0.26733         0.67243
| 30>    H        4.87092        -1.12910         2.30841
| 31>    H        7.30958        -0.99192         2.19026
| 32>    H        6.98078         2.75448         0.05361
| 33>    H        4.54773         2.61497         0.19900
| 34>    H        9.24509        -0.06091         1.31903
| 35>    H        8.79507         1.76990        -1.10604
| 36>    H        8.71091         0.00118        -1.09752
| 37>    H       10.24776         0.82625        -0.79396
| 38>    H        8.06926         2.59022         2.53077
| 39> *
| 40>
| 41>                          ****END OF INPUT****
 Total Charge           Charge          ....    0
 Multiplicity           Mult            ....    1
 Number of Electrons    NEL             ....  112
FINAL SINGLE POINT ENERGY      -656.119758220939
FINAL SINGLE POINT ENERGY      -656.122196114841
FINAL SINGLE POINT ENERGY      -656.123052374317
FINAL SINGLE POINT ENERGY      -656.123192832757
FINAL SINGLE POINT ENERGY      -656.123463443421
FINAL SINGLE POINT ENERGY      -656.123583165142
FINAL SINGLE POINT ENERGY      -656.123661024852
FINAL SINGLE POINT ENERGY      -656.123720740367
FINAL SINGLE POINT ENERGY      -656.123788602996
FINAL SINGLE POINT ENERGY      -656.123839930419
FINAL SINGLE POINT ENERGY      -656.123914258065
FINAL SINGLE POINT ENERGY      -656.124000237196
FINAL SINGLE POINT ENERGY      -656.124079463978
FINAL SINGLE POINT ENERGY      -656.124098420450
FINAL SINGLE POINT ENERGY      -656.124164878754
FINAL SINGLE POINT ENERGY      -656.124184763667
FINAL SINGLE POINT ENERGY      -656.124191030617
FINAL SINGLE POINT ENERGY      -656.124193095911
                    ***********************HURRAY********************

CARTESIAN COORDINATES (ANGSTROEM)
---------------------------------
  C      2.735287    2.038027    3.313623
  C      2.431183    0.667724    2.701912
  C      0.927225    0.378395    2.722152
  C      2.977614    0.542556    1.259545
  C      4.479293    0.639940    1.148333
  C      5.301357   -0.408013    1.590525
  C      6.692742   -0.320231    1.504910
  C      7.311455    0.818802    0.968314
  C      6.493396    1.869179    0.522906
  C      5.103640    1.778341    0.613332
  C      8.826365    0.901964    0.853712
  C      9.317804    0.959068   -0.596501
  C      9.403292    2.049948    1.687405
  O      8.900373    2.186155    2.940422
  O     10.287025    2.803169    1.322859
  H      2.365770    2.094671    4.348514
  H      2.244345    2.838479    2.736123
  H      3.815071    2.246958    3.327772
  H      2.936723   -0.101956    3.312835
  H      0.380914    1.117656    2.113953
  H      0.529256    0.427333    3.746882
  H      0.706622   -0.620831    2.317008
  H      2.510770    1.324492    0.637159
  H      2.648337   -0.429207    0.854623
  H      4.845841   -1.311703    2.004074
  H      7.311203   -1.152397    1.851610
  H      6.945838    2.769800    0.099086
  H      4.487085    2.607823    0.257570
  H      9.237927   -0.008666    1.327369
  H      8.944651    1.859190   -1.104100
  H      8.957247    0.077999   -1.144034
  H     10.414756    0.971660   -0.636152
  H      8.170943    1.543884    3.076642

 Multiplicity           Mult            ....    1
 Number of Electrons    NEL             ....  112
 Basis Dimension        Dim             ....  573

ORBITAL ENERGIES
----------------

  NO   OCC          E(Eh)            E(eV)
   0   2.0000     -18.799521      -511.5610
   1   2.0000     -18.744597      -510.0664
   2   2.0000     -10.013123      -272.4709
   3   2.0000      -9.912877      -269.7431
   4   2.0000      -9.902608      -269.4637
   5   2.0000      -9.896179      -269.2887
   6   2.0000      -9.890366      -269.1306
   7   2.0000      -9.889848      -269.1164
   8   2.0000      -9.886984      -269.0385
   9   2.0000      -9.886658      -269.0296
  10   2.0000      -9.886024      -269.0124
  11   2.0000      -9.879052      -268.8227
  12   2.0000      -9.876460      -268.7521
  13   2.0000      -9.865000      -268.4403
  14   2.0000      -9.863973      -268.4123
  15   2.0000      -1.014377       -27.6026
  16   2.0000      -0.935895       -25.4670
  17   2.0000      -0.789667       -21.4879
  18   2.0000      -0.744461       -20.2578
  19   2.0000      -0.720313       -19.6007
  20   2.0000      -0.676522       -18.4091
  21   2.0000      -0.671633       -18.2761
  22   2.0000      -0.613102       -16.6833
  23   2.0000      -0.609559       -16.5870
  24   2.0000      -0.590090       -16.0572
  25   2.0000      -0.556286       -15.1373
  26   2.0000      -0.548132       -14.9154
  27   2.0000      -0.525727       -14.3057
  28   2.0000      -0.496879       -13.5208
  29   2.0000      -0.472755       -12.8643
  30   2.0000      -0.449711       -12.2372
  31   2.0000      -0.426741       -11.6122
  32   2.0000      -0.413094       -11.2409
  33   2.0000      -0.407246       -11.0817
  34   2.0000      -0.397620       -10.8198
  35   2.0000      -0.394689       -10.7400
  36   2.0000      -0.387445       -10.5429
  37   2.0000      -0.376080       -10.2337
  38   2.0000      -0.372882       -10.1466
  39   2.0000      -0.369077       -10.0431
  40   2.0000      -0.357450        -9.7267
  41   2.0000      -0.341570        -9.2946
  42   2.0000      -0.332713        -9.0536
  43   2.0000      -0.330192        -8.9850
  44   2.0000      -0.319601        -8.6968
  45   2.0000      -0.317919        -8.6510
  46   2.0000      -0.314044        -8.5456
  47   2.0000      -0.301789        -8.2121
  48   2.0000      -0.293898        -7.9974
  49   2.0000      -0.289120        -7.8674
  50   2.0000      -0.286532        -7.7969
  51   2.0000      -0.281049        -7.6477
  52   2.0000      -0.275806        -7.5051
  53   2.0000      -0.245101        -6.6695
  54   2.0000      -0.234170        -6.3721
  55   2.0000      -0.217292        -5.9128
  56   0.0000      -0.051542        -1.4025
  57   0.0000      -0.050297        -1.3687
  58   0.0000      -0.036515        -0.9936
  59   0.0000       0.012565         0.3419
  60   0.0000       0.024971         0.6795

MULLIKEN ATOMIC CHARGES
-----------------------
   0 C :   -0.401199
   1 C :   -0.023204
   2 C :   -0.377455
   3 C :   -0.210067
   4 C :    0.207146
   5 C :   -0.234303
   6 C :   -0.169999
   7 C :    0.012443
   8 C :   -0.195853
   9 C :   -0.223186
  10 C :    0.016130
  11 C :   -0.412590
  12 C :    0.206077
  13 O :   -0.319390
  14 O :   -0.333430
  15 H :    0.126700
  16 H :    0.112933
  17 H :    0.130419
  18 H :    0.080728
  19 H :    0.115511
  20 H :    0.126625
  21 H :    0.124771
  22 H :    0.116174
  23 H :    0.114463
  24 H :    0.127761
  25 H :    0.127833
  26 H :    0.133965
  27 H :    0.123556
  28 H :    0.131160
  29 H :    0.135334
  30 H :    0.136188
  31 H :    0.135955
  32 H :    0.358799
Sum of atomic charges:   -0.0000000

LOEWDIN ATOMIC CHARGES
----------------------
   0 C :   -0.297527
   1 C :   -0.307129
   2 C :   -0.299181
   3 C :   -0.200202
   4 C :   -0.144493
   5 C :   -0.112382
   6 C :   -0.119184
   7 C :   -0.149282
   8 C :   -0.109767
   9 C :   -0.115393
  10 C :   -0.221333
  11 C :   -0.273219
  12 C :   -0.482915
  13 O :    0.113607
  14 O :    0.077250
  15 H :    0.125610
  16 H :    0.125729
  17 H :    0.125607
  18 H :    0.154641
  19 H :    0.125453
  20 H :    0.125460
  21 H :    0.124765
  22 H :    0.151270
  23 H :    0.154454
  24 H :    0.156511
  25 H :    0.157235
  26 H :    0.159036
  27 H :    0.155505
  28 H :    0.190190
  29 H :    0.131241
  30 H :    0.132842
  31 H :    0.130521
  32 H :    0.215078

  Mayer bond orders larger than 0.100000
B(  0-C ,  1-C ) :   0.9998 B(  0-C , 15-H ) :   0.9654 B(  0-C , 16-H ) :   0.9613
B(  0-C , 17-H ) :   0.9625 B(  1-C ,  2-C ) :   0.9746 B(  1-C ,  3-C ) :   0.9872
B(  1-C , 18-H ) :   0.9395 B(  2-C , 19-H ) :   0.9626 B(  2-C , 20-H ) :   0.9658
B(  2-C , 21-H ) :   0.9647 B(  3-C ,  4-C ) :   0.9227 B(  3-C , 22-H ) :   0.9541
B(  3-C , 23-H ) :   0.9339 B(  4-C ,  5-C ) :   1.3079 B(  4-C ,  9-C ) :   1.3134
B(  5-C ,  6-C ) :   1.4017 B(  5-C , 24-H ) :   0.9850 B(  6-C ,  7-C ) :   1.3334
B(  6-C , 25-H ) :   0.9770 B(  7-C ,  8-C ) :   1.3281 B(  7-C , 10-C ) :   0.9020
B(  8-C ,  9-C ) :   1.4141 B(  8-C , 26-H ) :   0.9813 B(  9-C , 27-H ) :   0.9814
B( 10-C , 11-C ) :   0.9821 B( 10-C , 12-C ) :   0.9652 B( 10-C , 28-H ) :   0.8952
B( 11-C , 29-H ) :   0.9636 B( 11-C , 30-H ) :   0.9604 B( 11-C , 31-H ) :   0.9565
B( 12-C , 13-O ) :   1.2541 B( 12-C , 14-O ) :   2.1060 B( 13-O , 32-H ) :   0.8347

FINAL SINGLE POINT ENERGY      -656.124193810691

DIPOLE MOMENT
-------------
                                X             Y             Z
Electronic contribution:     19.14753       2.61503      -1.32428
Nuclear contribution   :    -20.99248      -4.30255       1.37251
                        -----------------------------------------
Total Dipole Moment    :     -1.84495      -1.68752       0.04823
                        -----------------------------------------
Magnitude (a.u.)       :      2.50078
Magnitude (Debye)      :      6.35648

Rotational constants in cm-1:     0.047806     0.008499     0.008009
Rotational constants in MHz :  1433.192955   254.797006   240.110712

                             ****ORCA TERMINATED NORMALLY****
TOTAL RUN TIME: 0 days 0 hours 26 minutes 16 seconds 76 msec
