                         Program Version 5.0.4 -  RELEASE  -
|  1> # ORCA input file
|  2> #
|  3> !TPSS STO-3G Opt CPCM(WATER)
|  4>
|  5> * xyz 0 1
|  6>    C        2.51158         1.94756         2.60573
|  7>    C        2.25536         0.96160         1.46447
|  8>    C        0.74524         0.81106         1.24936
|  9>    C        2.92580         1.40939         0.15172
| 10>    C        4.43034         1.55789         0.20717
| 11>    C        5.26167         0.46240         0.46590
| 12>    C        6.65476         0.59883         0.42551
| 13>    C        7.24791         1.83155         0.11193
| 14>    C        6.41047         2.93519        -0.11026
| 15>    C        5.02103         2.79876        -0.06128
| 16>    C        8.76102         1.93225        -0.05663
| 17>    C        9.09540         2.35216        -1.49427
| 18>    C        9.51272         2.83111         0.91923
| 19>    O        8.80891         3.32035         1.96468
| 20>    O       10.70739         3.08621         0.80213
| 21>    H        2.02343         1.60730         3.52519
| 22>    H        2.12250         2.94266         2.36454
| 23>    H        3.58050         2.04224         2.81968
| 24>    H        2.65201        -0.01745         1.76022
| 25>    H        0.28537         1.76747         0.97560
| 26>    H        0.25582         0.45223         2.16115
| 27>    H        0.53153         0.09307         0.45069
| 28>    H        2.47657         2.35652        -0.17573
| 29>    H        2.69614         0.68540        -0.64197
| 30>    H        4.83180        -0.51614         0.67097
| 31>    H        7.26813        -0.28320         0.60297
| 32>    H        6.82783         3.91067        -0.35575
| 33>    H        4.39927         3.66864        -0.26536
| 34>    H        9.18294         0.93039         0.10471
| 35>    H        8.71034         3.35199        -1.72490
| 36>    H        8.66417         1.65151        -2.21781
| 37>    H       10.17758         2.38088        -1.65965
| 38>    H        7.87163         3.04560         1.99566
| 39> *
| 40>
| 41>                          ****END OF INPUT****
 Total Charge           Charge          ....    0
 Multiplicity           Mult            ....    1
 Number of Electrons    NEL             ....  112
FINAL SINGLE POINT ENERGY      -648.722852018419
FINAL SINGLE POINT ENERGY      -648.745770309177
FINAL SINGLE POINT ENERGY      -648.749016217085
FINAL SINGLE POINT ENERGY      -648.749796630530
FINAL SINGLE POINT ENERGY      -648.750064574162
FINAL SINGLE POINT ENERGY      -648.750226473338
FINAL SINGLE POINT ENERGY      -648.750298751398
FINAL SINGLE POINT ENERGY      -648.750350040024
FINAL SINGLE POINT ENERGY      -648.750417273514
FINAL SINGLE POINT ENERGY      -648.750448665714
FINAL SINGLE POINT ENERGY      -648.750463004075
FINAL SINGLE POINT ENERGY      -648.750474060099
FINAL SINGLE POINT ENERGY      -648.750479022244
FINAL SINGLE POINT ENERGY      -648.750482569001
FINAL SINGLE POINT ENERGY      -648.750484901959
FINAL SINGLE POINT ENERGY      -648.750485618201
                    ***********************HURRAY********************

CARTESIAN COORDINATES (ANGSTROEM)
---------------------------------
  C      2.571046    2.326643    2.482534
  C      2.301914    1.084521    1.570464
  C      0.773612    0.747171    1.531193
  C      2.839717    1.311250    0.101814
  C      4.375340    1.473692    0.033447
  C      5.230390    0.349722    0.190523
  C      6.633242    0.492687    0.139814
  C      7.231966    1.766460   -0.068913
  C      6.374876    2.892035   -0.229100
  C      4.972554    2.745637   -0.176706
  C      8.773042    1.905464   -0.125898
  C      9.290942    2.584815   -1.438956
  C      9.356982    2.699983    1.150172
  O      8.514468    2.693494    2.305645
  O     10.480114    3.268412    1.191715
  H      2.210178    2.132013    3.509023
  H      2.045010    3.216247    2.090476
  H      3.652028    2.551064    2.528351
  H      2.840284    0.212305    1.998528
  H      0.201597    1.589332    1.100561
  H      0.396380    0.555256    2.552436
  H      0.590115   -0.151899    0.914894
  H      2.355713    2.211273   -0.325721
  H      2.540739    0.437382   -0.512646
  H      4.791108   -0.649931    0.348059
  H      7.279000   -0.394062    0.259648
  H      6.810814    3.892064   -0.392523
  H      4.328744    3.632035   -0.306480
  H      9.207850    0.883173   -0.068266
  H      8.832660    3.580521   -1.576272
  H      9.048114    1.957652   -2.316099
  H     10.388149    2.707677   -1.378599
  H      7.668472    2.202002    1.952483

 Multiplicity           Mult            ....    1
 Number of Electrons    NEL             ....  112
 Basis Dimension        Dim             ....   93

ORBITAL ENERGIES
----------------

  NO   OCC          E(Eh)            E(eV)
   0   2.0000     -18.689399      -508.5644
   1   2.0000     -18.624762      -506.8055
   2   2.0000      -9.895998      -269.2838
   3   2.0000      -9.852268      -268.0938
   4   2.0000      -9.838194      -267.7109
   5   2.0000      -9.834654      -267.6145
   6   2.0000      -9.831893      -267.5394
   7   2.0000      -9.830157      -267.4922
   8   2.0000      -9.828613      -267.4502
   9   2.0000      -9.822781      -267.2915
  10   2.0000      -9.822718      -267.2897
  11   2.0000      -9.820454      -267.2281
  12   2.0000      -9.820410      -267.2269
  13   2.0000      -9.820055      -267.2173
  14   2.0000      -9.819395      -267.1993
  15   2.0000      -0.928238       -25.2586
  16   2.0000      -0.860499       -23.4154
  17   2.0000      -0.749745       -20.4016
  18   2.0000      -0.706162       -19.2156
  19   2.0000      -0.682106       -18.5611
  20   2.0000      -0.643224       -17.5030
  21   2.0000      -0.636988       -17.3333
  22   2.0000      -0.591813       -16.1040
  23   2.0000      -0.584032       -15.8923
  24   2.0000      -0.546327       -14.8663
  25   2.0000      -0.514902       -14.0112
  26   2.0000      -0.491446       -13.3729
  27   2.0000      -0.473815       -12.8932
  28   2.0000      -0.445116       -12.1122
  29   2.0000      -0.413143       -11.2422
  30   2.0000      -0.398798       -10.8519
  31   2.0000      -0.384924       -10.4743
  32   2.0000      -0.372341       -10.1319
  33   2.0000      -0.356290        -9.6951
  34   2.0000      -0.352522        -9.5926
  35   2.0000      -0.348073        -9.4715
  36   2.0000      -0.333521        -9.0756
  37   2.0000      -0.324157        -8.8208
  38   2.0000      -0.321733        -8.7548
  39   2.0000      -0.308878        -8.4050
  40   2.0000      -0.307176        -8.3587
  41   2.0000      -0.294453        -8.0125
  42   2.0000      -0.292431        -7.9575
  43   2.0000      -0.281886        -7.6705
  44   2.0000      -0.268083        -7.2949
  45   2.0000      -0.259870        -7.0714
  46   2.0000      -0.251123        -6.8334
  47   2.0000      -0.248573        -6.7640
  48   2.0000      -0.244869        -6.6632
  49   2.0000      -0.241912        -6.5828
  50   2.0000      -0.231416        -6.2972
  51   2.0000      -0.219415        -5.9706
  52   2.0000      -0.167545        -4.5591
  53   2.0000      -0.159276        -4.3341
  54   2.0000      -0.135225        -3.6797
  55   2.0000      -0.097980        -2.6662
  56   0.0000       0.048537         1.3208
  57   0.0000       0.058038         1.5793
  58   0.0000       0.075752         2.0613
  59   0.0000       0.190419         5.1816
  60   0.0000       0.246273         6.7014

MULLIKEN ATOMIC CHARGES
-----------------------
   0 C :   -0.200922
   1 C :   -0.035658
   2 C :   -0.199863
   3 C :   -0.124059
   4 C :   -0.003003
   5 C :   -0.082257
   6 C :   -0.081167
   7 C :   -0.030555
   8 C :   -0.083096
   9 C :   -0.081229
  10 C :   -0.070670
  11 C :   -0.196998
  12 C :    0.175161
  13 O :   -0.204833
  14 O :   -0.217078
  15 H :    0.066052
  16 H :    0.064885
  17 H :    0.066623
  18 H :    0.063488
  19 H :    0.065466
  20 H :    0.066668
  21 H :    0.066068
  22 H :    0.070654
  23 H :    0.072933
  24 H :    0.078685
  25 H :    0.079818
  26 H :    0.080604
  27 H :    0.078666
  28 H :    0.084346
  29 H :    0.073537
  30 H :    0.074428
  31 H :    0.076089
  32 H :    0.207219
Sum of atomic charges:    0.0000000

LOEWDIN ATOMIC CHARGES
----------------------
   0 C :   -0.108588
   1 C :    0.007626
   2 C :   -0.107083
   3 C :   -0.058421
   4 C :    0.005390
   5 C :   -0.049727
   6 C :   -0.048102
   7 C :   -0.022243
   8 C :   -0.049395
   9 C :   -0.048906
  10 C :   -0.035592
  11 C :   -0.100879
  12 C :    0.105670
  13 O :   -0.125180
  14 O :   -0.169155
  15 H :    0.034049
  16 H :    0.032935
  17 H :    0.034487
  18 H :    0.027808
  19 H :    0.033318
  20 H :    0.034527
  21 H :    0.033913
  22 H :    0.035981
  23 H :    0.038368
  24 H :    0.042825
  25 H :    0.043651
  26 H :    0.044436
  27 H :    0.042759
  28 H :    0.046823
  29 H :    0.039849
  30 H :    0.040476
  31 H :    0.042032
  32 H :    0.156349

  Mayer bond orders larger than 0.100000
B(  0-C ,  1-C ) :   0.9902 B(  0-C , 15-H ) :   0.9774 B(  0-C , 16-H ) :   0.9781
B(  0-C , 17-H ) :   0.9761 B(  1-C ,  2-C ) :   0.9872 B(  1-C ,  3-C ) :   0.9593
B(  1-C , 18-H ) :   0.9592 B(  2-C , 19-H ) :   0.9782 B(  2-C , 20-H ) :   0.9770
B(  2-C , 21-H ) :   0.9774 B(  3-C ,  4-C ) :   0.9905 B(  3-C , 22-H ) :   0.9660
B(  3-C , 23-H ) :   0.9610 B(  4-C ,  5-C ) :   1.3953 B(  4-C ,  7-C ) :   0.1071
B(  4-C ,  9-C ) :   1.3940 B(  5-C ,  6-C ) :   1.4401 B(  5-C ,  8-C ) :   0.1100
B(  5-C , 24-H ) :   0.9584 B(  6-C ,  7-C ) :   1.3788 B(  6-C ,  9-C ) :   0.1066
B(  6-C , 25-H ) :   0.9577 B(  7-C ,  8-C ) :   1.3756 B(  7-C , 10-C ) :   0.9808
B(  8-C ,  9-C ) :   1.4419 B(  8-C , 26-H ) :   0.9574 B(  9-C , 27-H ) :   0.9583
B( 10-C , 11-C ) :   0.9785 B( 10-C , 12-C ) :   0.8594 B( 10-C , 28-H ) :   0.9476
B( 11-C , 29-H ) :   0.9762 B( 11-C , 30-H ) :   0.9759 B( 11-C , 31-H ) :   0.9731
B( 12-C , 13-O ) :   1.0831 B( 12-C , 14-O ) :   1.8901 B( 13-O , 14-O ) :   0.2534
B( 13-O , 32-H ) :   0.8885

FINAL SINGLE POINT ENERGY      -648.750486041871

DIPOLE MOMENT
-------------
                                X             Y             Z
Electronic contribution:     20.12479       2.92519       0.30797
Nuclear contribution   :    -21.42536      -3.62998      -0.74140
                        -----------------------------------------
Total Dipole Moment    :     -1.30057      -0.70479      -0.43343
                        -----------------------------------------
Magnitude (a.u.)       :      1.54145
Magnitude (Debye)      :      3.91805

Rotational constants in cm-1:     0.046225     0.008295     0.007780
Rotational constants in MHz :  1385.784945   248.678228   233.249947

                             ****ORCA TERMINATED NORMALLY****
TOTAL RUN TIME: 0 days 0 hours 4 minutes 4 seconds 581 msec
