                         Program Version 5.0.4 -  RELEASE  -
|  1> # ORCA input file
|  2> #
|  3> !B3LYP STO-3G Opt CPCM(WATER)
|  4>
|  5> * xyz 0 1
|  6>    C        2.61581        -3.88133        -0.54439
|  7>    C        2.30712        -2.53453        -1.20072
|  8>    C        0.78978        -2.32508        -1.25519
|  9>    C        2.97892        -1.37043        -0.44728
| 10>    C        4.49014        -1.43992        -0.37082
| 11>    C        5.28132        -1.44182        -1.52424
| 12>    C        6.68061        -1.41159        -1.43194
| 13>    C        7.31787        -1.36158        -0.18274
| 14>    C        6.52138        -1.41135         0.96935
| 15>    C        5.12533        -1.44926         0.87607
| 16>    C        8.83031        -1.14689        -0.09838
| 17>    C        9.11651         0.17309         0.62847
| 18>    C        9.66865        -2.26129         0.53572
| 19>    O        9.02071        -3.41185         0.82973
| 20>    O       10.86783        -2.14395         0.74380
| 21>    H        2.11699        -4.69567        -1.07999
| 22>    H        2.27701        -3.90083         0.49688
| 23>    H        3.68944        -4.09252        -0.55778
| 24>    H        2.67553        -2.56367        -2.23334
| 25>    H        0.36437        -2.21373        -0.25148
| 26>    H        0.29536        -3.17614        -1.73619
| 27>    H        0.53955        -1.42732        -1.83020
| 28>    H        2.56450        -1.31747         0.56854
| 29>    H        2.71221        -0.41734        -0.92359
| 30>    H        4.81842        -1.43208        -2.50803
| 31>    H        7.25978        -1.38546        -2.35284
| 32>    H        6.97071        -1.37845         1.96183
| 33>    H        4.53782        -1.45448         1.79131
| 34>    H        9.21153        -1.05955        -1.12192
| 35>    H        8.73004         0.16941         1.65252
| 36>    H        8.65524         1.01648         0.10085
| 37>    H       10.19191         0.36892         0.69449
| 38>    H        8.07467        -3.42397         0.60296
| 39> *
| 40>
| 41>                          ****END OF INPUT****
 Total Charge           Charge          ....    0
 Multiplicity           Mult            ....    1
 Number of Electrons    NEL             ....  112
FINAL SINGLE POINT ENERGY      -648.055030655111
FINAL SINGLE POINT ENERGY      -648.072649011166
FINAL SINGLE POINT ENERGY      -648.075323903383
FINAL SINGLE POINT ENERGY      -648.075992203571
FINAL SINGLE POINT ENERGY      -648.076304210281
FINAL SINGLE POINT ENERGY      -648.076533024142
FINAL SINGLE POINT ENERGY      -648.076679721899
FINAL SINGLE POINT ENERGY      -648.076759342956
FINAL SINGLE POINT ENERGY      -648.076866759972
FINAL SINGLE POINT ENERGY      -648.076938274332
FINAL SINGLE POINT ENERGY      -648.076994670022
FINAL SINGLE POINT ENERGY      -648.077034368939
FINAL SINGLE POINT ENERGY      -648.077056684310
FINAL SINGLE POINT ENERGY      -648.077071476716
FINAL SINGLE POINT ENERGY      -648.077081993186
FINAL SINGLE POINT ENERGY      -648.077084390617
                    ***********************HURRAY********************

CARTESIAN COORDINATES (ANGSTROEM)
---------------------------------
  C      2.702404   -3.846586   -0.118369
  C      2.368893   -2.675883   -1.094543
  C      0.831969   -2.595744   -1.358497
  C      2.893688   -1.295788   -0.544983
  C      4.430597   -1.237158   -0.419889
  C      5.242177   -1.083591   -1.569623
  C      6.645067   -1.042017   -1.464071
  C      7.282108   -1.152013   -0.203960
  C      6.470419   -1.305025    0.948053
  C      5.068753   -1.347043    0.839848
  C      8.825302   -1.096586   -0.095919
  C      9.333698    0.085573    0.789407
  C      9.433563   -2.470266    0.453361
  O      8.746649   -3.647465    0.054142
  O     10.460791   -2.565838    1.160725
  H      2.349945   -4.803192   -0.534295
  H      2.211890   -3.688963    0.854781
  H      3.788222   -3.917350    0.047058
  H      2.876219   -2.871509   -2.058816
  H      0.289050   -2.388418   -0.423144
  H      0.463477   -3.548522   -1.769638
  H      0.603709   -1.794140   -2.078055
  H      2.438182   -1.105492    0.442156
  H      2.556799   -0.499603   -1.233212
  H      4.769987   -0.990344   -2.557664
  H      7.256773   -0.918644   -2.369095
  H      6.941204   -1.393790    1.937206
  H      4.457787   -1.462868    1.745992
  H      9.232924   -0.968245   -1.118742
  H      8.896208    0.035143    1.797951
  H      9.059561    1.048967    0.332541
  H     10.429827    0.032257    0.880935
  H      7.939529   -3.291508   -0.470182

 Multiplicity           Mult            ....    1
 Number of Electrons    NEL             ....  112
 Basis Dimension        Dim             ....   93

ORBITAL ENERGIES
----------------

  NO   OCC          E(Eh)            E(eV)
   0   2.0000     -18.921440      -514.8786
   1   2.0000     -18.861254      -513.2408
   2   2.0000     -10.094052      -274.6731
   3   2.0000     -10.034437      -273.0509
   4   2.0000     -10.016976      -272.5758
   5   2.0000     -10.011895      -272.4375
   6   2.0000     -10.011227      -272.4193
   7   2.0000     -10.010010      -272.3862
   8   2.0000     -10.007169      -272.3089
   9   2.0000     -10.002198      -272.1736
  10   2.0000     -10.001994      -272.1681
  11   2.0000      -9.999701      -272.1057
  12   2.0000      -9.999281      -272.0943
  13   2.0000      -9.994856      -271.9739
  14   2.0000      -9.993759      -271.9440
  15   2.0000      -1.002404       -27.2768
  16   2.0000      -0.930472       -25.3194
  17   2.0000      -0.808197       -21.9922
  18   2.0000      -0.762102       -20.7378
  19   2.0000      -0.737160       -20.0591
  20   2.0000      -0.695284       -18.9196
  21   2.0000      -0.688809       -18.7434
  22   2.0000      -0.639470       -17.4009
  23   2.0000      -0.632077       -17.1997
  24   2.0000      -0.594771       -16.1845
  25   2.0000      -0.560823       -15.2608
  26   2.0000      -0.536121       -14.5886
  27   2.0000      -0.516571       -14.0566
  28   2.0000      -0.494644       -13.4599
  29   2.0000      -0.457041       -12.4367
  30   2.0000      -0.441477       -12.0132
  31   2.0000      -0.424206       -11.5432
  32   2.0000      -0.409227       -11.1356
  33   2.0000      -0.394660       -10.7392
  34   2.0000      -0.390301       -10.6206
  35   2.0000      -0.386446       -10.5157
  36   2.0000      -0.370854       -10.0915
  37   2.0000      -0.362209        -9.8562
  38   2.0000      -0.358308        -9.7501
  39   2.0000      -0.344411        -9.3719
  40   2.0000      -0.343356        -9.3432
  41   2.0000      -0.334403        -9.0996
  42   2.0000      -0.330675        -8.9981
  43   2.0000      -0.318477        -8.6662
  44   2.0000      -0.308140        -8.3849
  45   2.0000      -0.298858        -8.1324
  46   2.0000      -0.287841        -7.8326
  47   2.0000      -0.285087        -7.7576
  48   2.0000      -0.278058        -7.5663
  49   2.0000      -0.276375        -7.5205
  50   2.0000      -0.265822        -7.2334
  51   2.0000      -0.262358        -7.1391
  52   2.0000      -0.192058        -5.2262
  53   2.0000      -0.184226        -5.0131
  54   2.0000      -0.177523        -4.8307
  55   2.0000      -0.142348        -3.8735
  56   0.0000       0.081753         2.2246
  57   0.0000       0.090818         2.4713
  58   0.0000       0.109762         2.9868
  59   0.0000       0.234980         6.3941
  60   0.0000       0.291658         7.9364

MULLIKEN ATOMIC CHARGES
-----------------------
   0 C :   -0.222245
   1 C :   -0.038800
   2 C :   -0.221072
   3 C :   -0.138192
   4 C :   -0.000085
   5 C :   -0.088348
   6 C :   -0.087862
   7 C :   -0.023794
   8 C :   -0.088556
   9 C :   -0.087289
  10 C :   -0.078197
  11 C :   -0.217946
  12 C :    0.206201
  13 O :   -0.232067
  14 O :   -0.233426
  15 H :    0.072543
  16 H :    0.071486
  17 H :    0.073323
  18 H :    0.068763
  19 H :    0.072110
  20 H :    0.073130
  21 H :    0.072585
  22 H :    0.076535
  23 H :    0.078555
  24 H :    0.083658
  25 H :    0.084901
  26 H :    0.085203
  27 H :    0.083706
  28 H :    0.091599
  29 H :    0.080768
  30 H :    0.081646
  31 H :    0.083442
  32 H :    0.217723
Sum of atomic charges:   -0.0000000

LOEWDIN ATOMIC CHARGES
----------------------
   0 C :   -0.125235
   1 C :    0.005112
   2 C :   -0.123625
   3 C :   -0.069434
   4 C :    0.008094
   5 C :   -0.054681
   6 C :   -0.053512
   7 C :   -0.017021
   8 C :   -0.053878
   9 C :   -0.053668
  10 C :   -0.040776
  11 C :   -0.117222
  12 C :    0.134212
  13 O :   -0.146934
  14 O :   -0.183837
  15 H :    0.039070
  16 H :    0.038056
  17 H :    0.039699
  18 H :    0.031873
  19 H :    0.038475
  20 H :    0.039515
  21 H :    0.038960
  22 H :    0.040509
  23 H :    0.042594
  24 H :    0.046624
  25 H :    0.047562
  26 H :    0.047921
  27 H :    0.046620
  28 H :    0.052379
  29 H :    0.045419
  30 H :    0.046132
  31 H :    0.047699
  32 H :    0.163301

  Mayer bond orders larger than 0.100000
B(  0-C ,  1-C ) :   0.9922 B(  0-C , 15-H ) :   0.9779 B(  0-C , 16-H ) :   0.9783
B(  0-C , 17-H ) :   0.9764 B(  1-C ,  2-C ) :   0.9897 B(  1-C ,  3-C ) :   0.9641
B(  1-C , 18-H ) :   0.9603 B(  2-C , 19-H ) :   0.9783 B(  2-C , 20-H ) :   0.9776
B(  2-C , 21-H ) :   0.9779 B(  3-C ,  4-C ) :   0.9923 B(  3-C , 22-H ) :   0.9669
B(  3-C , 23-H ) :   0.9628 B(  4-C ,  5-C ) :   1.4044 B(  4-C ,  7-C ) :   0.1097
B(  4-C ,  9-C ) :   1.3989 B(  5-C ,  6-C ) :   1.4387 B(  5-C ,  8-C ) :   0.1115
B(  5-C , 24-H ) :   0.9607 B(  6-C ,  7-C ) :   1.3955 B(  6-C ,  9-C ) :   0.1079
B(  6-C , 25-H ) :   0.9599 B(  7-C ,  8-C ) :   1.3899 B(  7-C , 10-C ) :   0.9796
B(  8-C ,  9-C ) :   1.4453 B(  8-C , 26-H ) :   0.9598 B(  9-C , 27-H ) :   0.9605
B( 10-C , 11-C ) :   0.9824 B( 10-C , 12-C ) :   0.8764 B( 10-C , 28-H ) :   0.9490
B( 11-C , 29-H ) :   0.9764 B( 11-C , 30-H ) :   0.9766 B( 11-C , 31-H ) :   0.9738
B( 12-C , 13-O ) :   1.0666 B( 12-C , 14-O ) :   1.8996 B( 13-O , 14-O ) :   0.2268
B( 13-O , 32-H ) :   0.9011

FINAL SINGLE POINT ENERGY      -648.077085396641

DIPOLE MOMENT
-------------
                                X             Y             Z
Electronic contribution:     20.05768      -0.42117       2.66118
Nuclear contribution   :    -21.31668       0.97932      -3.41877
                        -----------------------------------------
Total Dipole Moment    :     -1.25900       0.55815      -0.75759
                        -----------------------------------------
Magnitude (a.u.)       :      1.57180
Magnitude (Debye)      :      3.99521

Rotational constants in cm-1:     0.046096     0.008350     0.007827
Rotational constants in MHz :  1381.919415   250.320555   234.658457

                             ****ORCA TERMINATED NORMALLY****
TOTAL RUN TIME: 0 days 0 hours 12 minutes 44 seconds 603 msec
