                         Program Version 5.0.4 -  RELEASE  -
|  1> # ORCA input file
|  2> #
|  3> !B3LYP 6-311+G** Opt CPCM(WATER)
|  4>
|  5> * xyz 0 1
|  6>    H        2.00250        -0.97652        -0.40737
|  7>    C        2.12691         0.04515        -0.01930
|  8>    C        3.18653         0.74372        -0.88584
|  9>    C        0.77693         0.72908        -0.24715
| 10>    O       -0.09000         0.66634         0.79607
| 11>    O        0.43454         1.24174        -1.30655
| 12>    C        2.59669        -0.05102         1.43442
| 13>    C        2.81147        -1.30422         2.04756
| 14>    C        3.29655        -1.38571         3.36637
| 15>    C        3.61456        -0.21427         4.05923
| 16>    C        3.37408         1.02811         3.47642
| 17>    C        2.85272         1.11055         2.18336
| 18>    C        3.51606        -2.67581         4.06883
| 19>    O        4.46597        -2.78146         4.84235
| 20>    C        2.60272        -3.83812         3.89052
| 21>    C        1.24693        -3.67494         3.58221
| 22>    C        0.43272        -4.79349         3.39241
| 23>    C        0.96277        -6.07579         3.53543
| 24>    C        2.29946        -6.24394         3.89158
| 25>    C        3.11809        -5.12845         4.07659
| 26>    H        2.86710         0.79991        -1.93235
| 27>    H        4.14117         0.20650        -0.85983
| 28>    H        3.36875         1.77216        -0.55415
| 29>    H        0.26521         0.23991         1.59854
| 30>    H        2.63348        -2.21860         1.48382
| 31>    H        4.04752        -0.26791         5.05642
| 32>    H        3.60568         1.93642         4.03029
| 33>    H        2.67279         2.09775         1.75905
| 34>    H        0.80211        -2.68733         3.50254
| 35>    H       -0.61725        -4.66734         3.13986
| 36>    H        0.32782        -6.94633         3.38409
| 37>    H        2.70685        -7.24304         4.02571
| 38>    H        4.15777        -5.26632         4.36571
| 39> *
| 40>
| 41>                          ****END OF INPUT****
 Total Charge           Charge          ....    0
 Multiplicity           Mult            ....    1
 Number of Electrons    NEL             ....  134
FINAL SINGLE POINT ENERGY      -843.581678129365
FINAL SINGLE POINT ENERGY      -843.585300064407
FINAL SINGLE POINT ENERGY      -843.585455612435
FINAL SINGLE POINT ENERGY      -843.585929708463
FINAL SINGLE POINT ENERGY      -843.586086996291
FINAL SINGLE POINT ENERGY      -843.586170689273
FINAL SINGLE POINT ENERGY      -843.586270037611
FINAL SINGLE POINT ENERGY      -843.586415668644
FINAL SINGLE POINT ENERGY      -843.586595779034
FINAL SINGLE POINT ENERGY      -843.586667898011
FINAL SINGLE POINT ENERGY      -843.586668204879
FINAL SINGLE POINT ENERGY      -843.586716322867
FINAL SINGLE POINT ENERGY      -843.586742313515
FINAL SINGLE POINT ENERGY      -843.586794735137
FINAL SINGLE POINT ENERGY      -843.586857325278
FINAL SINGLE POINT ENERGY      -843.586874658886
FINAL SINGLE POINT ENERGY      -843.586875513445
FINAL SINGLE POINT ENERGY      -843.586880416553
                    ***********************HURRAY********************

CARTESIAN COORDINATES (ANGSTROEM)
---------------------------------
  H      1.876436   -0.968222   -0.275720
  C      2.130497    0.051963    0.032381
  C      3.205875    0.598155   -0.917289
  C      0.838130    0.866203   -0.062352
  O     -0.266199    0.304850    0.476122
  O      0.746888    1.960537   -0.568306
  C      2.606045   -0.011943    1.483675
  C      2.767592   -1.247089    2.116564
  C      3.265759   -1.325781    3.424195
  C      3.592886   -0.147757    4.108563
  C      3.399934    1.087372    3.498029
  C      2.915800    1.155913    2.191735
  C      3.537192   -2.640762    4.087484
  O      4.509022   -2.757801    4.829122
  C      2.626760   -3.802818    3.851601
  C      1.257918   -3.635546    3.594096
  C      0.428192   -4.747903    3.459804
  C      0.960315   -6.033694    3.557591
  C      2.324481   -6.208897    3.807588
  C      3.149716   -5.100990    3.967470
  H      2.848899    0.586663   -1.949622
  H      4.099558   -0.026256   -0.852375
  H      3.478732    1.623089   -0.659248
  H     -0.087032   -0.579991    0.828830
  H      2.532683   -2.154955    1.572461
  H      3.983761   -0.208128    5.117456
  H      3.631786    2.000207    4.035320
  H      2.783019    2.125730    1.723434
  H      0.833508   -2.641247    3.524910
  H     -0.631854   -4.609629    3.278462
  H      0.315064   -6.897787    3.441669
  H      2.739664   -7.207937    3.881242
  H      4.206172   -5.228819    4.171946

 Multiplicity           Mult            ....    1
 Number of Electrons    NEL             ....  134
 Basis Dimension        Dim             ....  502

ORBITAL ENERGIES
----------------

  NO   OCC          E(Eh)            E(eV)
   0   2.0000     -19.177650      -521.8504
   1   2.0000     -19.124925      -520.4157
   2   2.0000     -19.122672      -520.3543
   3   2.0000     -10.317500      -280.7534
   4   2.0000     -10.275057      -279.5985
   5   2.0000     -10.204266      -277.6722
   6   2.0000     -10.200450      -277.5683
   7   2.0000     -10.195815      -277.4422
   8   2.0000     -10.194119      -277.3961
   9   2.0000     -10.190276      -277.2915
  10   2.0000     -10.188430      -277.2413
  11   2.0000     -10.187594      -277.2185
  12   2.0000     -10.187155      -277.2066
  13   2.0000     -10.186214      -277.1810
  14   2.0000     -10.185853      -277.1711
  15   2.0000     -10.184485      -277.1339
  16   2.0000     -10.182463      -277.0789
  17   2.0000     -10.182327      -277.0752
  18   2.0000     -10.163953      -276.5752
  19   2.0000      -1.117178       -30.4000
  20   2.0000      -1.054153       -28.6850
  21   2.0000      -1.035207       -28.1694
  22   2.0000      -0.879871       -23.9425
  23   2.0000      -0.869300       -23.6549
  24   2.0000      -0.815477       -22.1903
  25   2.0000      -0.783346       -21.3159
  26   2.0000      -0.760571       -20.6962
  27   2.0000      -0.756449       -20.5840
  28   2.0000      -0.742998       -20.2180
  29   2.0000      -0.668722       -18.1968
  30   2.0000      -0.663306       -18.0495
  31   2.0000      -0.626591       -17.0504
  32   2.0000      -0.626077       -17.0364
  33   2.0000      -0.616271       -16.7696
  34   2.0000      -0.602131       -16.3848
  35   2.0000      -0.566383       -15.4121
  36   2.0000      -0.540329       -14.7031
  37   2.0000      -0.515385       -14.0243
  38   2.0000      -0.509303       -13.8588
  39   2.0000      -0.487360       -13.2618
  40   2.0000      -0.479086       -13.0366
  41   2.0000      -0.473743       -12.8912
  42   2.0000      -0.470319       -12.7980
  43   2.0000      -0.461564       -12.5598
  44   2.0000      -0.449761       -12.2386
  45   2.0000      -0.441436       -12.0121
  46   2.0000      -0.439316       -11.9544
  47   2.0000      -0.431994       -11.7552
  48   2.0000      -0.426952       -11.6180
  49   2.0000      -0.426148       -11.5961
  50   2.0000      -0.408426       -11.1138
  51   2.0000      -0.400345       -10.8939
  52   2.0000      -0.381525       -10.3818
  53   2.0000      -0.375249       -10.2110
  54   2.0000      -0.372227       -10.1288
  55   2.0000      -0.366596        -9.9756
  56   2.0000      -0.365140        -9.9360
  57   2.0000      -0.359901        -9.7934
  58   2.0000      -0.352022        -9.5790
  59   2.0000      -0.346645        -9.4327
  60   2.0000      -0.337260        -9.1773
  61   2.0000      -0.299286        -8.1440
  62   2.0000      -0.277895        -7.5619
  63   2.0000      -0.271507        -7.3881
  64   2.0000      -0.267398        -7.2763
  65   2.0000      -0.265425        -7.2226
  66   2.0000      -0.259349        -7.0572
  67   0.0000      -0.080412        -2.1881
  68   0.0000      -0.035038        -0.9534
  69   0.0000      -0.031658        -0.8615
  70   0.0000      -0.020844        -0.5672
  71   0.0000      -0.005658        -0.1540

MULLIKEN ATOMIC CHARGES
-----------------------
   0 H :    0.192970
   1 C :    0.038230
   2 C :   -0.679776
   3 C :   -0.110231
   4 O :   -0.200853
   5 O :   -0.332682
   6 C :    1.201287
   7 C :   -2.107382
   8 C :    1.487760
   9 C :    0.163048
  10 C :   -0.364847
  11 C :   -0.108982
  12 C :   -1.071741
  13 O :   -0.290727
  14 C :    1.348765
  15 C :   -0.925802
  16 C :   -0.322452
  17 C :   -0.170658
  18 C :   -0.241505
  19 C :    0.170307
  20 H :    0.163841
  21 H :    0.159627
  22 H :    0.183644
  23 H :    0.316190
  24 H :    0.174984
  25 H :    0.162767
  26 H :    0.165945
  27 H :    0.169283
  28 H :    0.177936
  29 H :    0.162585
  30 H :    0.165608
  31 H :    0.163777
  32 H :    0.159085
Sum of atomic charges:   -0.0000000

LOEWDIN ATOMIC CHARGES
----------------------
   0 H :    0.108219
   1 C :   -0.112980
   2 C :   -0.079885
   3 C :    0.001737
   4 O :   -0.053935
   5 O :   -0.216627
   6 C :   -0.100777
   7 C :   -0.030310
   8 C :   -0.102364
   9 C :   -0.018676
  10 C :   -0.043953
  11 C :   -0.033227
  12 C :    0.030079
  13 O :   -0.226189
  14 C :   -0.114417
  15 C :   -0.035886
  16 C :   -0.060303
  17 C :   -0.043670
  18 C :   -0.059898
  19 C :   -0.023173
  20 H :    0.071544
  21 H :    0.074607
  22 H :    0.078302
  23 H :    0.152314
  24 H :    0.108373
  25 H :    0.097107
  26 H :    0.085854
  27 H :    0.100488
  28 H :    0.099148
  29 H :    0.084352
  30 H :    0.084031
  31 H :    0.083880
  32 H :    0.096234

  Mayer bond orders larger than 0.100000
B(  0-H ,  1-C ) :   1.0772 B(  0-H ,  6-C ) :  -0.4383 B(  0-H ,  7-C ) :   0.3319
B(  1-C ,  2-C ) :   0.9269 B(  1-C ,  3-C ) :   0.8441 B(  1-C ,  4-O ) :  -0.2491
B(  1-C ,  7-C ) :   0.4478 B(  2-C ,  6-C ) :  -0.3968 B(  2-C ,  7-C ) :   0.2128
B(  2-C , 11-C ) :   0.2248 B(  2-C , 20-H ) :   0.9763 B(  2-C , 21-H ) :   1.0021
B(  2-C , 22-H ) :   0.9699 B(  3-C ,  4-O ) :   1.3462 B(  3-C ,  5-O ) :   2.0519
B(  3-C ,  6-C ) :  -0.2434 B(  3-C , 11-C ) :   0.2001 B(  4-O ,  6-C ) :   0.6353
B(  4-O ,  7-C ) :  -0.3507 B(  4-O , 11-C ) :  -0.1526 B(  4-O , 23-H ) :   0.8615
B(  5-O ,  7-C ) :   0.1486 B(  5-O , 11-C ) :  -0.2343 B(  6-C ,  7-C ) :   0.8032
B(  6-C ,  8-C ) :   0.3376 B(  6-C , 10-C ) :   0.2391 B(  6-C , 11-C ) :   1.4968
B(  6-C , 12-C ) :  -0.1662 B(  6-C , 14-C ) :   0.4378 B(  6-C , 15-C ) :  -0.1244
B(  6-C , 16-C ) :   0.3458 B(  6-C , 18-C ) :   0.1729 B(  6-C , 19-C ) :  -0.8607
B(  6-C , 23-H ) :   0.1089 B(  7-C ,  8-C ) :   0.5331 B(  7-C ,  9-C ) :   0.3783
B(  7-C , 11-C ) :   0.3731 B(  7-C , 12-C ) :   1.7896 B(  7-C , 14-C ) :  -0.3848
B(  7-C , 15-C ) :   1.6535 B(  7-C , 17-C ) :   0.1669 B(  7-C , 18-C ) :  -0.2932
B(  7-C , 19-C ) :  -0.2338 B(  7-C , 24-H ) :   0.8325 B(  8-C ,  9-C ) :   1.6530
B(  8-C , 11-C ) :   0.1483 B(  8-C , 12-C ) :  -0.3806 B(  8-C , 14-C ) :   0.4061
B(  8-C , 15-C ) :  -0.5428 B(  8-C , 16-C ) :   0.2175 B(  8-C , 17-C ) :  -0.1350
B(  8-C , 18-C ) :   0.1669 B(  8-C , 19-C ) :  -0.5653 B(  9-C , 10-C ) :   1.1310
B(  9-C , 11-C ) :  -0.4233 B(  9-C , 12-C ) :  -0.4242 B(  9-C , 14-C ) :  -0.7680
B(  9-C , 15-C ) :  -0.4937 B(  9-C , 16-C ) :  -0.5569 B(  9-C , 17-C ) :   0.1019
B(  9-C , 18-C ) :  -0.1217 B(  9-C , 19-C ) :   1.4446 B(  9-C , 25-H ) :   0.8934
B( 10-C , 11-C ) :   1.1876 B( 10-C , 14-C ) :   0.1545 B( 10-C , 15-C ) :  -0.1917
B( 10-C , 16-C ) :   0.1140 B( 10-C , 19-C ) :  -0.1213 B( 10-C , 26-H ) :   1.0090
B( 11-C , 14-C ) :  -0.1459 B( 11-C , 27-H ) :   0.8523 B( 12-C , 13-O ) :   1.8408
B( 12-C , 15-C ) :   1.3289 B( 12-C , 16-C ) :   0.1678 B( 12-C , 18-C ) :  -0.1003
B( 12-C , 19-C ) :  -0.2795 B( 12-C , 32-H ) :   0.1310 B( 14-C , 15-C ) :   1.1203
B( 14-C , 16-C ) :  -0.1330 B( 14-C , 19-C ) :   1.6499 B( 15-C , 16-C ) :   1.4072
B( 15-C , 19-C ) :  -0.1228 B( 15-C , 28-H ) :   0.9542 B( 16-C , 17-C ) :   1.4145
B( 16-C , 29-H ) :   0.9945 B( 17-C , 18-C ) :   1.4535 B( 17-C , 19-C ) :   0.1530
B( 17-C , 30-H ) :   0.9474 B( 18-C , 19-C ) :   1.3794 B( 18-C , 31-H ) :   1.0084
B( 19-C , 31-H ) :  -0.1102 B( 19-C , 32-H ) :   0.9135

FINAL SINGLE POINT ENERGY      -843.586878958206

DIPOLE MOMENT
-------------
                                X             Y             Z
Electronic contribution:     -1.13558      -0.23683       5.05402
Nuclear contribution   :      0.54541      -1.64063      -5.46437
                        -----------------------------------------
Total Dipole Moment    :     -0.59017      -1.87746      -0.41035
                        -----------------------------------------
Magnitude (a.u.)       :      2.01036
Magnitude (Debye)      :      5.10992

Rotational constants in cm-1:     0.020966     0.007106     0.005915
Rotational constants in MHz :   628.555579   213.028999   177.338879

                             ****ORCA TERMINATED NORMALLY****
TOTAL RUN TIME: 0 days 2 hours 59 minutes 28 seconds 135 msec
