                         Program Version 5.0.4 -  RELEASE  -
|  1> # ORCA input file
|  2> #
|  3> !TPSS def2-TZVP Opt CPCM(WATER)
|  4>
|  5> * xyz 0 1
|  6>    H        2.99915        -0.59482        -0.34059
|  7>    C        2.10378        -0.01297        -0.08462
|  8>    C        1.05032        -0.28195        -1.16588
|  9>    C        1.63311        -0.57603         1.25651
| 10>    O        2.13412         0.03527         2.35434
| 11>    O        0.91295        -1.55966         1.36234
| 12>    C        2.47423         1.46674        -0.07906
| 13>    C        3.78469         1.86990        -0.39931
| 14>    C        4.11807         3.23189        -0.46005
| 15>    C        3.13324         4.19567        -0.22177
| 16>    C        1.83803         3.80664         0.11446
| 17>    C        1.51181         2.45269         0.19252
| 18>    C        5.47566         3.70437        -0.84698
| 19>    O        5.57797         4.74591        -1.48773
| 20>    C        6.70779         2.95851        -0.48076
| 21>    C        6.79747         2.20439         0.69555
| 22>    C        7.97785         1.52353         0.99996
| 23>    C        9.07757         1.61359         0.14671
| 24>    C        9.00404         2.38924        -1.00942
| 25>    C        7.82309         3.06382        -1.32205
| 26>    H        0.84493        -1.35384        -1.25723
| 27>    H        1.38631         0.07941        -2.14407
| 28>    H        0.09783         0.20863        -0.93395
| 29>    H        2.69503         0.81074         2.16941
| 30>    H        4.53372         1.11835        -0.64245
| 31>    H        3.37083         5.25491        -0.31116
| 32>    H        1.07556         4.56211         0.29220
| 33>    H        0.48630         2.17742         0.43695
| 34>    H        5.96911         2.15137         1.39542
| 35>    H        8.04593         0.93196         1.90975
| 36>    H        9.99880         1.08965         0.39056
| 37>    H        9.86735         2.47447        -1.66491
| 38>    H        7.77542         3.67607        -2.22102
| 39> *
| 40>
| 41>                          ****END OF INPUT****
 Total Charge           Charge          ....    0
 Multiplicity           Mult            ....    1
 Number of Electrons    NEL             ....  134
FINAL SINGLE POINT ENERGY      -844.296518371035
FINAL SINGLE POINT ENERGY      -844.298942023282
FINAL SINGLE POINT ENERGY      -844.299310334764
FINAL SINGLE POINT ENERGY      -844.299568647239
FINAL SINGLE POINT ENERGY      -844.299682943935
FINAL SINGLE POINT ENERGY      -844.299749404292
FINAL SINGLE POINT ENERGY      -844.299802267045
FINAL SINGLE POINT ENERGY      -844.299883008368
FINAL SINGLE POINT ENERGY      -844.299935694638
FINAL SINGLE POINT ENERGY      -844.299991930242
FINAL SINGLE POINT ENERGY      -844.300016721195
FINAL SINGLE POINT ENERGY      -844.300072896384
FINAL SINGLE POINT ENERGY      -844.300118905771
FINAL SINGLE POINT ENERGY      -844.300143429887
FINAL SINGLE POINT ENERGY      -844.299954183706
FINAL SINGLE POINT ENERGY      -844.300164148984
FINAL SINGLE POINT ENERGY      -844.300175715724
FINAL SINGLE POINT ENERGY      -844.300180751092
FINAL SINGLE POINT ENERGY      -844.300184135447
                    ***********************HURRAY********************

CARTESIAN COORDINATES (ANGSTROEM)
---------------------------------
  H      3.064860   -0.524522   -0.238544
  C      2.128408    0.027503   -0.087384
  C      1.131069   -0.362405   -1.188822
  C      1.602634   -0.365449    1.296185
  O      2.516810   -0.388065    2.300921
  O      0.446399   -0.638156    1.552047
  C      2.467251    1.517475   -0.104162
  C      3.766758    1.938309   -0.402974
  C      4.086619    3.303772   -0.468366
  C      3.086113    4.256941   -0.223658
  C      1.797187    3.844939    0.103537
  C      1.486658    2.484268    0.159171
  C      5.448601    3.776639   -0.866519
  O      5.572755    4.832382   -1.497875
  C      6.654999    2.976207   -0.500359
  C      6.710645    2.206512    0.673584
  C      7.882993    1.533089    1.017540
  C      9.000644    1.602749    0.183202
  C      8.952016    2.363512   -0.990450
  C      7.792019    3.056834   -1.322804
  H      0.934490   -1.438311   -1.162059
  H      1.548251   -0.105031   -2.166610
  H      0.182715    0.166362   -1.061234
  H      3.407357   -0.167273    1.966229
  H      4.528624    1.193952   -0.618819
  H      3.334277    5.312551   -0.279889
  H      1.027901    4.582379    0.314939
  H      0.474205    2.175988    0.408929
  H      5.849029    2.157942    1.332677
  H      7.923242    0.954702    1.936289
  H      9.909403    1.068287    0.446607
  H      9.820308    2.415669   -1.641518
  H      7.746819    3.658228   -2.226139

 Multiplicity           Mult            ....    1
 Number of Electrons    NEL             ....  134
 Basis Dimension        Dim             ....  673

ORBITAL ENERGIES
----------------

  NO   OCC          E(Eh)            E(eV)
   0   2.0000     -18.934249      -515.2271
   1   2.0000     -18.880399      -513.7618
   2   2.0000     -18.878334      -513.7056
   3   2.0000     -10.119249      -275.3588
   4   2.0000     -10.079525      -274.2778
   5   2.0000     -10.019009      -272.6311
   6   2.0000     -10.013389      -272.4782
   7   2.0000     -10.008217      -272.3374
   8   2.0000     -10.006375      -272.2873
   9   2.0000     -10.004606      -272.2392
  10   2.0000     -10.002421      -272.1797
  11   2.0000     -10.002417      -272.1796
  12   2.0000     -10.001176      -272.1458
  13   2.0000     -10.000092      -272.1163
  14   2.0000     -10.000035      -272.1148
  15   2.0000      -9.999229      -272.0928
  16   2.0000      -9.997037      -272.0332
  17   2.0000      -9.996928      -272.0302
  18   2.0000      -9.983632      -271.6684
  19   2.0000      -1.035304       -28.1720
  20   2.0000      -0.972691       -26.4683
  21   2.0000      -0.956847       -26.0371
  22   2.0000      -0.815141       -22.1811
  23   2.0000      -0.804893       -21.9023
  24   2.0000      -0.754171       -20.5220
  25   2.0000      -0.723267       -19.6811
  26   2.0000      -0.701346       -19.0846
  27   2.0000      -0.697391       -18.9770
  28   2.0000      -0.685108       -18.6427
  29   2.0000      -0.614544       -16.7226
  30   2.0000      -0.608371       -16.5546
  31   2.0000      -0.573266       -15.5994
  32   2.0000      -0.568462       -15.4686
  33   2.0000      -0.564108       -15.3502
  34   2.0000      -0.548517       -14.9259
  35   2.0000      -0.514901       -14.0112
  36   2.0000      -0.490611       -13.3502
  37   2.0000      -0.468373       -12.7451
  38   2.0000      -0.461519       -12.5586
  39   2.0000      -0.438951       -11.9445
  40   2.0000      -0.431831       -11.7507
  41   2.0000      -0.420540       -11.4435
  42   2.0000      -0.418249       -11.3811
  43   2.0000      -0.412798       -11.2328
  44   2.0000      -0.403410       -10.9773
  45   2.0000      -0.395699       -10.7675
  46   2.0000      -0.389129       -10.5887
  47   2.0000      -0.387732       -10.5507
  48   2.0000      -0.380650       -10.3580
  49   2.0000      -0.379370       -10.3232
  50   2.0000      -0.364704        -9.9241
  51   2.0000      -0.358436        -9.7535
  52   2.0000      -0.343229        -9.3397
  53   2.0000      -0.335119        -9.1190
  54   2.0000      -0.331956        -9.0330
  55   2.0000      -0.324510        -8.8304
  56   2.0000      -0.321651        -8.7526
  57   2.0000      -0.319807        -8.7024
  58   2.0000      -0.310052        -8.4370
  59   2.0000      -0.305938        -8.3250
  60   2.0000      -0.290524        -7.9056
  61   2.0000      -0.254089        -6.9141
  62   2.0000      -0.245411        -6.6780
  63   2.0000      -0.243308        -6.6207
  64   2.0000      -0.240775        -6.5518
  65   2.0000      -0.233301        -6.3485
  66   2.0000      -0.221395        -6.0245
  67   0.0000      -0.102713        -2.7950
  68   0.0000      -0.057053        -1.5525
  69   0.0000      -0.053306        -1.4505
  70   0.0000      -0.043664        -1.1882
  71   0.0000      -0.028466        -0.7746

MULLIKEN ATOMIC CHARGES
-----------------------
   0 H :    0.131887
   1 C :   -0.036767
   2 C :   -0.392606
   3 C :    0.271392
   4 O :   -0.356093
   5 O :   -0.358176
   6 C :    0.128565
   7 C :   -0.322750
   8 C :    0.192333
   9 C :   -0.195716
  10 C :   -0.123344
  11 C :   -0.185685
  12 C :    0.218776
  13 O :   -0.376926
  14 C :    0.142457
  15 C :   -0.210313
  16 C :   -0.133709
  17 C :   -0.108927
  18 C :   -0.125760
  19 C :   -0.196804
  20 H :    0.137098
  21 H :    0.133911
  22 H :    0.134237
  23 H :    0.370289
  24 H :    0.151868
  25 H :    0.130475
  26 H :    0.138794
  27 H :    0.134977
  28 H :    0.158452
  29 H :    0.139010
  30 H :    0.141130
  31 H :    0.138632
  32 H :    0.129290
Sum of atomic charges:    0.0000000

LOEWDIN ATOMIC CHARGES
----------------------
   0 H :    0.177772
   1 C :   -0.208805
   2 C :   -0.256282
   3 C :   -0.465692
   4 O :    0.104375
   5 O :    0.073847
   6 C :   -0.118717
   7 C :   -0.059285
   8 C :   -0.115276
   9 C :   -0.084519
  10 C :   -0.124793
  11 C :   -0.081468
  12 C :   -0.238558
  13 O :    0.081961
  14 C :   -0.120958
  15 C :   -0.090774
  16 C :   -0.132506
  17 C :   -0.120025
  18 C :   -0.131316
  19 C :   -0.086919
  20 H :    0.127654
  21 H :    0.128757
  22 H :    0.127055
  23 H :    0.217393
  24 H :    0.163833
  25 H :    0.154831
  26 H :    0.153132
  27 H :    0.157850
  28 H :    0.158723
  29 H :    0.151690
  30 H :    0.151525
  31 H :    0.151414
  32 H :    0.154082

  Mayer bond orders larger than 0.100000
B(  0-H ,  1-C ) :   0.9083 B(  1-C ,  2-C ) :   0.9937 B(  1-C ,  3-C ) :   0.9831
B(  1-C ,  6-C ) :   0.9275 B(  2-C , 20-H ) :   0.9618 B(  2-C , 21-H ) :   0.9617
B(  2-C , 22-H ) :   0.9592 B(  3-C ,  4-O ) :   1.2284 B(  3-C ,  5-O ) :   2.0471
B(  4-O , 23-H ) :   0.8378 B(  6-C ,  7-C ) :   1.3362 B(  6-C , 11-C ) :   1.3253
B(  7-C ,  8-C ) :   1.3142 B(  7-C , 24-H ) :   0.9838 B(  8-C ,  9-C ) :   1.3070
B(  8-C , 12-C ) :   0.9604 B(  9-C , 10-C ) :   1.3942 B(  9-C , 25-H ) :   0.9816
B( 10-C , 11-C ) :   1.3708 B( 10-C , 26-H ) :   0.9801 B( 11-C , 27-H ) :   0.9745
B( 12-C , 13-O ) :   1.9610 B( 12-C , 14-C ) :   0.9870 B( 14-C , 15-C ) :   1.3103
B( 14-C , 19-C ) :   1.3104 B( 15-C , 16-C ) :   1.3946 B( 15-C , 28-H ) :   0.9708
B( 16-C , 17-C ) :   1.3799 B( 16-C , 29-H ) :   0.9765 B( 17-C , 18-C ) :   1.3623
B( 17-C , 30-H ) :   0.9712 B( 18-C , 19-C ) :   1.4221 B( 18-C , 31-H ) :   0.9768
B( 19-C , 32-H ) :   0.9801

FINAL SINGLE POINT ENERGY      -844.300185532764

DIPOLE MOMENT
-------------
                                X             Y             Z
Electronic contribution:      1.74863       4.35677       2.70420
Nuclear contribution   :     -0.07694      -5.36056      -2.87155
                        -----------------------------------------
Total Dipole Moment    :      1.67168      -1.00379      -0.16735
                        -----------------------------------------
Magnitude (a.u.)       :      1.95707
Magnitude (Debye)      :      4.97447

Rotational constants in cm-1:     0.020816     0.007181     0.005939
Rotational constants in MHz :   624.054042   215.277051   178.056877

                             ****ORCA TERMINATED NORMALLY****
TOTAL RUN TIME: 0 days 0 hours 42 minutes 4 seconds 295 msec
