                         Program Version 5.0.4 -  RELEASE  -
|  1> # ORCA input file
|  2> #
|  3> !PBE 6-311+G** Opt CPCM(WATER)
|  4>
|  5> * xyz 0 1
|  6>    C        2.67569         1.76515         3.50557
|  7>    C        2.36944         0.52730         2.66006
|  8>    C        0.85304         0.35239         2.53184
|  9>    C        3.01280         0.61958         1.26293
| 10>    C        4.52308         0.73287         1.26152
| 11>    C        5.32588        -0.26385         1.83075
| 12>    C        6.72138        -0.18302         1.76021
| 13>    C        7.34776         0.88750         1.10340
| 14>    C        6.53877         1.90312         0.57006
| 15>    C        5.14455         1.82624         0.64881
| 16>    C        8.85935         0.87626         0.89416
| 17>    C        9.16989         0.86797        -0.60844
| 18>    C        9.67830         1.97118         1.57297
| 19>    O        9.02053         2.78926         2.42048
| 20>    O       10.88237         2.10266         1.39315
| 21>    H        2.20498         1.68559         4.49092
| 22>    H        2.30498         2.67554         3.02336
| 23>    H        3.75199         1.87974         3.66775
| 24>    H        2.76094        -0.35184         3.18620
| 25>    H        0.40084         1.17948         1.97345
| 26>    H        0.38024         0.31473         3.51918
| 27>    H        0.61040        -0.58007         2.01109
| 28>    H        2.58137         1.47469         0.72497
| 29>    H        2.74568        -0.26733         0.67243
| 30>    H        4.87092        -1.12910         2.30841
| 31>    H        7.30958        -0.99192         2.19026
| 32>    H        6.98078         2.75448         0.05361
| 33>    H        4.54773         2.61497         0.19900
| 34>    H        9.24509        -0.06091         1.31903
| 35>    H        8.79507         1.76990        -1.10604
| 36>    H        8.71091         0.00118        -1.09752
| 37>    H       10.24776         0.82625        -0.79396
| 38>    H        8.06926         2.59022         2.53077
| 39> *
| 40>
| 41>                          ****END OF INPUT****
 Total Charge           Charge          ....    0
 Multiplicity           Mult            ....    1
 Number of Electrons    NEL             ....  112
FINAL SINGLE POINT ENERGY      -656.055431153687
FINAL SINGLE POINT ENERGY      -656.058107481120
FINAL SINGLE POINT ENERGY      -656.059003864945
FINAL SINGLE POINT ENERGY      -656.059197000630
FINAL SINGLE POINT ENERGY      -656.059463582307
FINAL SINGLE POINT ENERGY      -656.059592502409
FINAL SINGLE POINT ENERGY      -656.059686748617
FINAL SINGLE POINT ENERGY      -656.059755587010
FINAL SINGLE POINT ENERGY      -656.059834305160
FINAL SINGLE POINT ENERGY      -656.059901339569
FINAL SINGLE POINT ENERGY      -656.059971026485
FINAL SINGLE POINT ENERGY      -656.060053473283
FINAL SINGLE POINT ENERGY      -656.060104278875
FINAL SINGLE POINT ENERGY      -656.060097329982
FINAL SINGLE POINT ENERGY      -656.060148663709
FINAL SINGLE POINT ENERGY      -656.060158397686
FINAL SINGLE POINT ENERGY      -656.060165156950
FINAL SINGLE POINT ENERGY      -656.060166967305
FINAL SINGLE POINT ENERGY      -656.060168214512
                    ***********************HURRAY********************

CARTESIAN COORDINATES (ANGSTROEM)
---------------------------------
  C      2.745231    2.029915    3.321794
  C      2.427797    0.661125    2.704871
  C      0.918108    0.384051    2.725425
  C      2.972547    0.536908    1.258293
  C      4.477099    0.635421    1.145727
  C      5.301756   -0.410403    1.598771
  C      6.696350   -0.321414    1.512700
  C      7.314636    0.817738    0.966696
  C      6.493852    1.865655    0.509771
  C      5.100856    1.773087    0.600042
  C      8.832268    0.902127    0.851449
  C      9.325410    0.970093   -0.601298
  C      9.413983    2.041006    1.698363
  O      8.869739    2.208795    2.932838
  O     10.340620    2.758672    1.361084
  H      2.375020    2.087587    4.357956
  H      2.261793    2.837674    2.745177
  H      3.828422    2.228773    3.337603
  H      2.927569   -0.115914    3.313603
  H      0.376598    1.132378    2.121299
  H      0.521369    0.430624    3.752294
  H      0.687622   -0.612358    2.314878
  H      2.504330    1.320310    0.636358
  H      2.643327   -0.435513    0.851289
  H      4.846695   -1.312205    2.019805
  H      7.316404   -1.150770    1.866748
  H      6.945659    2.764077    0.077801
  H      4.482636    2.599219    0.236031
  H      9.245029   -0.013437    1.317515
  H      8.954259    1.875862   -1.103431
  H      8.961435    0.092765   -1.155136
  H     10.423710    0.978858   -0.640974
  H      8.109224    1.599503    3.045038

 Multiplicity           Mult            ....    1
 Number of Electrons    NEL             ....  112
 Basis Dimension        Dim             ....  438

ORBITAL ENERGIES
----------------

  NO   OCC          E(Eh)            E(eV)
   0   2.0000     -18.798816      -511.5418
   1   2.0000     -18.745908      -510.1021
   2   2.0000     -10.017522      -272.5906
   3   2.0000      -9.914988      -269.8006
   4   2.0000      -9.904014      -269.5019
   5   2.0000      -9.897613      -269.3278
   6   2.0000      -9.891928      -269.1730
   7   2.0000      -9.891307      -269.1562
   8   2.0000      -9.888230      -269.0724
   9   2.0000      -9.887883      -269.0630
  10   2.0000      -9.886127      -269.0152
  11   2.0000      -9.879142      -268.8251
  12   2.0000      -9.876527      -268.7540
  13   2.0000      -9.864306      -268.4214
  14   2.0000      -9.863262      -268.3930
  15   2.0000      -1.020017       -27.7561
  16   2.0000      -0.941860       -25.6293
  17   2.0000      -0.791785       -21.5456
  18   2.0000      -0.746089       -20.3021
  19   2.0000      -0.721584       -19.6353
  20   2.0000      -0.679043       -18.4777
  21   2.0000      -0.673544       -18.3281
  22   2.0000      -0.614621       -16.7247
  23   2.0000      -0.610300       -16.6071
  24   2.0000      -0.593146       -16.1403
  25   2.0000      -0.559680       -15.2297
  26   2.0000      -0.551124       -14.9969
  27   2.0000      -0.528037       -14.3686
  28   2.0000      -0.497914       -13.5489
  29   2.0000      -0.475112       -12.9285
  30   2.0000      -0.451569       -12.2878
  31   2.0000      -0.428313       -11.6550
  32   2.0000      -0.416506       -11.3337
  33   2.0000      -0.409143       -11.1333
  34   2.0000      -0.398965       -10.8564
  35   2.0000      -0.397461       -10.8155
  36   2.0000      -0.387690       -10.5496
  37   2.0000      -0.378208       -10.2916
  38   2.0000      -0.374893       -10.2014
  39   2.0000      -0.371016       -10.0959
  40   2.0000      -0.358445        -9.7538
  41   2.0000      -0.342988        -9.3332
  42   2.0000      -0.333144        -9.0653
  43   2.0000      -0.330950        -9.0056
  44   2.0000      -0.321212        -8.7406
  45   2.0000      -0.319849        -8.7035
  46   2.0000      -0.315800        -8.5934
  47   2.0000      -0.303410        -8.2562
  48   2.0000      -0.296120        -8.0578
  49   2.0000      -0.290783        -7.9126
  50   2.0000      -0.289179        -7.8690
  51   2.0000      -0.282428        -7.6853
  52   2.0000      -0.276742        -7.5305
  53   2.0000      -0.248650        -6.7661
  54   2.0000      -0.235332        -6.4037
  55   2.0000      -0.219077        -5.9614
  56   0.0000      -0.054875        -1.4932
  57   0.0000      -0.053708        -1.4615
  58   0.0000      -0.042075        -1.1449
  59   0.0000      -0.013734        -0.3737
  60   0.0000       0.000471         0.0128

MULLIKEN ATOMIC CHARGES
-----------------------
   0 C :   -0.758234
   1 C :    0.529210
   2 C :   -0.850845
   3 C :   -1.241493
   4 C :    1.932074
   5 C :   -0.652098
   6 C :   -0.524987
   7 C :    0.958681
   8 C :   -0.757687
   9 C :   -0.682891
  10 C :   -0.007137
  11 C :   -0.712904
  12 C :   -0.078749
  13 O :   -0.164637
  14 O :   -0.333573
  15 H :    0.170268
  16 H :    0.174825
  17 H :    0.176721
  18 H :    0.166530
  19 H :    0.173718
  20 H :    0.170403
  21 H :    0.169207
  22 H :    0.180765
  23 H :    0.185441
  24 H :    0.158521
  25 H :    0.163044
  26 H :    0.169972
  27 H :    0.157815
  28 H :    0.233825
  29 H :    0.197261
  30 H :    0.183345
  31 H :    0.184998
  32 H :    0.328612
Sum of atomic charges:   -0.0000000

LOEWDIN ATOMIC CHARGES
----------------------
   0 C :   -0.142778
   1 C :   -0.178883
   2 C :   -0.146504
   3 C :   -0.124229
   4 C :   -0.117126
   5 C :   -0.067799
   6 C :   -0.064796
   7 C :   -0.140871
   8 C :   -0.062453
   9 C :   -0.069905
  10 C :   -0.131829
  11 C :   -0.101814
  12 C :   -0.023215
  13 O :   -0.046396
  14 O :   -0.206181
  15 H :    0.068486
  16 H :    0.077880
  17 H :    0.075977
  18 H :    0.084687
  19 H :    0.073924
  20 H :    0.067779
  21 H :    0.068132
  22 H :    0.095870
  23 H :    0.094652
  24 H :    0.097784
  25 H :    0.098202
  26 H :    0.103591
  27 H :    0.096836
  28 H :    0.125044
  29 H :    0.084471
  30 H :    0.080550
  31 H :    0.077856
  32 H :    0.153057

  Mayer bond orders larger than 0.100000
B(  0-C ,  1-C ) :   0.6862 B(  0-C ,  2-C ) :  -0.1104 B(  0-C , 15-H ) :   1.0031
B(  0-C , 16-H ) :   0.9962 B(  0-C , 17-H ) :   0.9896 B(  1-C ,  2-C ) :   0.5006
B(  1-C ,  3-C ) :   0.6485 B(  1-C ,  5-C ) :   0.1344 B(  1-C , 18-H ) :   0.9484
B(  2-C ,  3-C ) :   0.4387 B(  2-C ,  4-C ) :  -0.3938 B(  2-C ,  5-C ) :   0.1053
B(  2-C , 19-H ) :   1.0242 B(  2-C , 20-H ) :   0.9980 B(  2-C , 21-H ) :   0.9921
B(  3-C ,  4-C ) :  -0.9987 B(  3-C ,  5-C ) :   0.3149 B(  3-C ,  6-C ) :   0.1273
B(  3-C ,  7-C ) :  -0.2512 B(  3-C ,  8-C ) :   0.2018 B(  3-C , 22-H ) :   1.2532
B(  3-C , 23-H ) :   1.0875 B(  4-C ,  5-C ) :   1.0929 B(  4-C ,  7-C ) :   0.6920
B(  4-C ,  8-C ) :  -0.3413 B(  4-C ,  9-C ) :   1.1022 B(  4-C , 10-C ) :  -0.1854
B(  4-C , 18-H ) :  -0.1384 B(  4-C , 22-H ) :  -0.4694 B(  4-C , 23-H ) :  -0.1971
B(  5-C ,  6-C ) :   1.1568 B(  5-C ,  9-C ) :   0.5725 B(  5-C , 24-H ) :   0.9601
B(  6-C ,  7-C ) :   1.2630 B(  6-C ,  8-C ) :   0.4324 B(  6-C ,  9-C ) :  -0.3140
B(  6-C , 12-C ) :  -0.1645 B(  6-C , 13-O ) :  -0.1476 B(  6-C , 25-H ) :   0.9573
B(  6-C , 28-H ) :   0.1477 B(  7-C ,  8-C ) :   1.3921 B(  7-C , 10-C ) :   0.2283
B(  7-C , 11-C ) :  -0.3890 B(  7-C , 12-C ) :  -0.3718 B(  7-C , 13-O ) :   0.3970
B(  7-C , 28-H ) :  -0.3047 B(  7-C , 29-H ) :  -0.1506 B(  7-C , 32-H ) :   0.1627
B(  8-C ,  9-C ) :   1.2250 B(  8-C , 10-C ) :   0.1387 B(  8-C , 11-C ) :   0.3802
B(  8-C , 12-C ) :   0.5439 B(  8-C , 14-O ) :  -0.1620 B(  8-C , 26-H ) :   0.9148
B(  9-C , 10-C ) :   0.2391 B(  9-C , 22-H ) :   0.2173 B(  9-C , 27-H ) :   0.9500
B( 10-C , 11-C ) :   0.8784 B( 10-C , 12-C ) :   0.8437 B( 10-C , 13-O ) :  -0.2826
B( 10-C , 28-H ) :   1.0371 B( 11-C , 29-H ) :   0.9592 B( 11-C , 30-H ) :   0.9950
B( 11-C , 31-H ) :   0.9845 B( 12-C , 13-O ) :   1.3602 B( 12-C , 14-O ) :   2.0468
B( 13-O , 32-H ) :   0.8319

FINAL SINGLE POINT ENERGY      -656.060168557197

DIPOLE MOMENT
-------------
                                X             Y             Z
Electronic contribution:     19.10938       2.48920      -1.35654
Nuclear contribution   :    -21.07732      -4.19957       1.30206
                        -----------------------------------------
Total Dipole Moment    :     -1.96794      -1.71037      -0.05448
                        -----------------------------------------
Magnitude (a.u.)       :      2.60790
Magnitude (Debye)      :      6.62875

Rotational constants in cm-1:     0.047821     0.008472     0.007979
Rotational constants in MHz :  1433.626218   253.984096   239.197009

                             ****ORCA TERMINATED NORMALLY****
TOTAL RUN TIME: 0 days 0 hours 26 minutes 19 seconds 664 msec
