                         Program Version 5.0.4 -  RELEASE  -
|  1> # ORCA input file
|  2> #
|  3> !B3LYP def2-TZVP Opt CPCM(WATER)
|  4>
|  5> * xyz 0 1
|  6>    H        2.00250        -0.97652        -0.40737
|  7>    C        2.12691         0.04515        -0.01930
|  8>    C        3.18653         0.74372        -0.88584
|  9>    C        0.77693         0.72908        -0.24715
| 10>    O       -0.09000         0.66634         0.79607
| 11>    O        0.43454         1.24174        -1.30655
| 12>    C        2.59669        -0.05102         1.43442
| 13>    C        2.81147        -1.30422         2.04756
| 14>    C        3.29655        -1.38571         3.36637
| 15>    C        3.61456        -0.21427         4.05923
| 16>    C        3.37408         1.02811         3.47642
| 17>    C        2.85272         1.11055         2.18336
| 18>    C        3.51606        -2.67581         4.06883
| 19>    O        4.46597        -2.78146         4.84235
| 20>    C        2.60272        -3.83812         3.89052
| 21>    C        1.24693        -3.67494         3.58221
| 22>    C        0.43272        -4.79349         3.39241
| 23>    C        0.96277        -6.07579         3.53543
| 24>    C        2.29946        -6.24394         3.89158
| 25>    C        3.11809        -5.12845         4.07659
| 26>    H        2.86710         0.79991        -1.93235
| 27>    H        4.14117         0.20650        -0.85983
| 28>    H        3.36875         1.77216        -0.55415
| 29>    H        0.26521         0.23991         1.59854
| 30>    H        2.63348        -2.21860         1.48382
| 31>    H        4.04752        -0.26791         5.05642
| 32>    H        3.60568         1.93642         4.03029
| 33>    H        2.67279         2.09775         1.75905
| 34>    H        0.80211        -2.68733         3.50254
| 35>    H       -0.61725        -4.66734         3.13986
| 36>    H        0.32782        -6.94633         3.38409
| 37>    H        2.70685        -7.24304         4.02571
| 38>    H        4.15777        -5.26632         4.36571
| 39> *
| 40>
| 41>                          ****END OF INPUT****
 Total Charge           Charge          ....    0
 Multiplicity           Mult            ....    1
 Number of Electrons    NEL             ....  134
FINAL SINGLE POINT ENERGY      -843.673052936469
FINAL SINGLE POINT ENERGY      -843.677175357175
FINAL SINGLE POINT ENERGY      -843.677372566445
FINAL SINGLE POINT ENERGY      -843.677887326218
FINAL SINGLE POINT ENERGY      -843.678032981065
FINAL SINGLE POINT ENERGY      -843.678140337236
FINAL SINGLE POINT ENERGY      -843.678353925770
FINAL SINGLE POINT ENERGY      -843.678537234450
FINAL SINGLE POINT ENERGY      -843.678679164999
FINAL SINGLE POINT ENERGY      -843.678747119767
FINAL SINGLE POINT ENERGY      -843.678784864240
FINAL SINGLE POINT ENERGY      -843.678863103200
FINAL SINGLE POINT ENERGY      -843.678808963330
FINAL SINGLE POINT ENERGY      -843.678892140613
FINAL SINGLE POINT ENERGY      -843.678899788286
FINAL SINGLE POINT ENERGY      -843.678892027781
FINAL SINGLE POINT ENERGY      -843.678896330436
                    ***********************HURRAY********************

CARTESIAN COORDINATES (ANGSTROEM)
---------------------------------
  H      1.748108   -0.960460   -0.211826
  C      2.088302    0.043494    0.058751
  C      3.190577    0.466365   -0.917884
  C      0.870281    0.958674   -0.045928
  O     -0.274180    0.489350    0.488906
  O      0.870864    2.053138   -0.554096
  C      2.580639   -0.010760    1.501083
  C      2.730076   -1.236654    2.146922
  C      3.238410   -1.308463    3.447701
  C      3.588778   -0.129166    4.111757
  C      3.415709    1.097155    3.486788
  C      2.920341    1.156890    2.188053
  C      3.495468   -2.615086    4.127604
  O      4.434369   -2.717982    4.907643
  C      2.616989   -3.792753    3.859914
  C      1.251262   -3.657704    3.588562
  C      0.455268   -4.785849    3.422342
  C      1.018526   -6.055635    3.501906
  C      2.379901   -6.198771    3.765849
  C      3.170854   -5.075224    3.956396
  H      2.820585    0.454655   -1.943943
  H      4.028698   -0.227401   -0.843721
  H      3.550729    1.470334   -0.693732
  H     -0.158867   -0.400185    0.857675
  H      2.474604   -2.145445    1.617113
  H      3.985810   -0.183723    5.116841
  H      3.669858    2.011658    4.007990
  H      2.800948    2.120856    1.707533
  H      0.802573   -2.674893    3.532013
  H     -0.604214   -4.672028    3.229786
  H      0.399077   -6.932883    3.360804
  H      2.820514   -7.186178    3.825998
  H      4.226344   -5.178595    4.172039

 Multiplicity           Mult            ....    1
 Number of Electrons    NEL             ....  134
 Basis Dimension        Dim             ....  673

ORBITAL ENERGIES
----------------

  NO   OCC          E(Eh)            E(eV)
   0   2.0000     -19.177725      -521.8524
   1   2.0000     -19.122783      -520.3574
   2   2.0000     -19.121464      -520.3215
   3   2.0000     -10.312280      -280.6114
   4   2.0000     -10.270988      -279.4878
   5   2.0000     -10.201348      -277.5928
   6   2.0000     -10.197830      -277.4971
   7   2.0000     -10.192870      -277.3621
   8   2.0000     -10.191009      -277.3115
   9   2.0000     -10.187792      -277.2239
  10   2.0000     -10.185686      -277.1666
  11   2.0000     -10.185373      -277.1581
  12   2.0000     -10.184372      -277.1308
  13   2.0000     -10.183439      -277.1055
  14   2.0000     -10.183101      -277.0963
  15   2.0000     -10.182020      -277.0668
  16   2.0000     -10.179946      -277.0104
  17   2.0000     -10.179753      -277.0052
  18   2.0000     -10.163381      -276.5597
  19   2.0000      -1.112332       -30.2681
  20   2.0000      -1.049618       -28.5616
  21   2.0000      -1.029913       -28.0254
  22   2.0000      -0.877770       -23.8853
  23   2.0000      -0.867190       -23.5974
  24   2.0000      -0.813355       -22.1325
  25   2.0000      -0.780700       -21.2439
  26   2.0000      -0.758017       -20.6267
  27   2.0000      -0.753934       -20.5156
  28   2.0000      -0.740723       -20.1561
  29   2.0000      -0.665937       -18.1211
  30   2.0000      -0.660826       -17.9820
  31   2.0000      -0.624142       -16.9838
  32   2.0000      -0.622309       -16.9339
  33   2.0000      -0.613919       -16.7056
  34   2.0000      -0.599333       -16.3087
  35   2.0000      -0.564116       -15.3504
  36   2.0000      -0.538528       -14.6541
  37   2.0000      -0.513653       -13.9772
  38   2.0000      -0.506769       -13.7899
  39   2.0000      -0.484590       -13.1864
  40   2.0000      -0.476287       -12.9604
  41   2.0000      -0.470621       -12.8063
  42   2.0000      -0.467916       -12.7327
  43   2.0000      -0.459067       -12.4918
  44   2.0000      -0.447724       -12.1832
  45   2.0000      -0.438834       -11.9413
  46   2.0000      -0.437131       -11.8949
  47   2.0000      -0.429665       -11.6918
  48   2.0000      -0.425238       -11.5713
  49   2.0000      -0.424193       -11.5429
  50   2.0000      -0.406764       -11.0686
  51   2.0000      -0.399211       -10.8631
  52   2.0000      -0.380413       -10.3516
  53   2.0000      -0.373349       -10.1593
  54   2.0000      -0.370999       -10.0954
  55   2.0000      -0.365191        -9.9373
  56   2.0000      -0.362610        -9.8671
  57   2.0000      -0.358348        -9.7511
  58   2.0000      -0.349430        -9.5085
  59   2.0000      -0.344101        -9.3635
  60   2.0000      -0.334449        -9.1008
  61   2.0000      -0.295503        -8.0410
  62   2.0000      -0.275461        -7.4957
  63   2.0000      -0.270144        -7.3510
  64   2.0000      -0.266090        -7.2407
  65   2.0000      -0.263694        -7.1755
  66   2.0000      -0.257540        -7.0080
  67   0.0000      -0.077128        -2.0988
  68   0.0000      -0.031334        -0.8526
  69   0.0000      -0.027573        -0.7503
  70   0.0000      -0.017364        -0.4725
  71   0.0000       0.001666         0.0453

MULLIKEN ATOMIC CHARGES
-----------------------
   0 H :    0.138540
   1 C :   -0.060309
   2 C :   -0.388527
   3 C :    0.307916
   4 O :   -0.376412
   5 O :   -0.367517
   6 C :    0.131599
   7 C :   -0.334012
   8 C :    0.181931
   9 C :   -0.201725
  10 C :   -0.134269
  11 C :   -0.181996
  12 C :    0.225404
  13 O :   -0.380084
  14 C :    0.137353
  15 C :   -0.227265
  16 C :   -0.131700
  17 C :   -0.126270
  18 C :   -0.132336
  19 C :   -0.200104
  20 H :    0.131483
  21 H :    0.132057
  22 H :    0.128728
  23 H :    0.372563
  24 H :    0.165760
  25 H :    0.141937
  26 H :    0.147395
  27 H :    0.149457
  28 H :    0.166847
  29 H :    0.147275
  30 H :    0.149673
  31 H :    0.146830
  32 H :    0.139777
Sum of atomic charges:   -0.0000000

LOEWDIN ATOMIC CHARGES
----------------------
   0 H :    0.178145
   1 C :   -0.206091
   2 C :   -0.257289
   3 C :   -0.467723
   4 O :    0.106156
   5 O :    0.070900
   6 C :   -0.117514
   7 C :   -0.058031
   8 C :   -0.114282
   9 C :   -0.085596
  10 C :   -0.126696
  11 C :   -0.083177
  12 C :   -0.234093
  13 O :    0.083124
  14 C :   -0.120220
  15 C :   -0.091470
  16 C :   -0.134505
  17 C :   -0.122352
  18 C :   -0.133509
  19 C :   -0.088075
  20 H :    0.127463
  21 H :    0.129045
  22 H :    0.126801
  23 H :    0.215987
  24 H :    0.164021
  25 H :    0.155784
  26 H :    0.153804
  27 H :    0.158738
  28 H :    0.158943
  29 H :    0.152306
  30 H :    0.152292
  31 H :    0.152094
  32 H :    0.155020

  Mayer bond orders larger than 0.100000
B(  0-H ,  1-C ) :   0.9530 B(  1-C ,  2-C ) :   0.9442 B(  1-C ,  3-C ) :   0.9656
B(  1-C ,  6-C ) :   0.8922 B(  2-C , 20-H ) :   0.9716 B(  2-C , 21-H ) :   0.9698
B(  2-C , 22-H ) :   0.9683 B(  3-C ,  4-O ) :   1.2214 B(  3-C ,  5-O ) :   2.0603
B(  4-O , 23-H ) :   0.8408 B(  6-C ,  7-C ) :   1.3590 B(  6-C , 11-C ) :   1.3357
B(  7-C ,  8-C ) :   1.3489 B(  7-C , 24-H ) :   0.9591 B(  8-C ,  9-C ) :   1.3142
B(  8-C , 12-C ) :   0.9568 B(  9-C , 10-C ) :   1.4048 B(  9-C , 25-H ) :   0.9716
B( 10-C , 11-C ) :   1.3859 B( 10-C , 26-H ) :   0.9805 B( 11-C , 27-H ) :   0.9607
B( 12-C , 13-O ) :   2.0032 B( 12-C , 14-C ) :   0.9763 B( 14-C , 15-C ) :   1.3242
B( 14-C , 19-C ) :   1.3175 B( 15-C , 16-C ) :   1.4021 B( 15-C , 28-H ) :   0.9650
B( 16-C , 17-C ) :   1.3862 B( 16-C , 29-H ) :   0.9747 B( 17-C , 18-C ) :   1.3698
B( 17-C , 30-H ) :   0.9685 B( 18-C , 19-C ) :   1.4277 B( 18-C , 31-H ) :   0.9760
B( 19-C , 32-H ) :   0.9723

FINAL SINGLE POINT ENERGY      -843.678903278806

DIPOLE MOMENT
-------------
                                X             Y             Z
Electronic contribution:     -1.17676       0.29571       5.21560
Nuclear contribution   :      0.46864      -2.17963      -5.64179
                        -----------------------------------------
Total Dipole Moment    :     -0.70812      -1.88392      -0.42619
                        -----------------------------------------
Magnitude (a.u.)       :      2.05724
Magnitude (Debye)      :      5.22908

Rotational constants in cm-1:     0.021175     0.007064     0.005912
Rotational constants in MHz :   634.821927   211.788356   177.248219

                             ****ORCA TERMINATED NORMALLY****
TOTAL RUN TIME: 0 days 2 hours 22 minutes 13 seconds 15 msec
