                         Program Version 5.0.4 -  RELEASE  -
|  1> # ORCA input file
|  2> #
|  3> !TPSS def2-TZVP Opt CPCM(WATER)
|  4>
|  5> * xyz 0 1
|  6>    C        2.66158         3.56603         1.95918
|  7>    C        2.35674         2.06714         1.98319
|  8>    C        0.84031         1.84916         1.95989
|  9>    C        3.01330         1.33196         0.79902
| 10>    C        4.52232         1.42683         0.74235
| 11>    C        5.32189         0.93981         1.78164
| 12>    C        6.71736         0.95939         1.67882
| 13>    C        7.34510         1.45003         0.52519
| 14>    C        6.54220         1.97800        -0.49742
| 15>    C        5.14902         1.96394        -0.38839
| 16>    C        8.85656         1.31629         0.36211
| 17>    C        9.16613         0.42959        -0.85305
| 18>    C        9.67095         2.60747         0.26817
| 19>    O        9.01350         3.75250         0.54683
| 20>    O       10.86903         2.61984        -0.01082
| 21>    H        2.17485         4.07238         2.79932
| 22>    H        2.30617         4.02764         1.03185
| 23>    H        3.73615         3.75486         2.04404
| 24>    H        2.73714         1.65566         2.92652
| 25>    H        0.40138         2.19680         1.01811
| 26>    H        0.35521         2.39292         2.77772
| 27>    H        0.59667         0.78776         2.07524
| 28>    H        2.58674         1.71094        -0.13932
| 29>    H        2.74929         0.26572         0.83430
| 30>    H        4.86391         0.51065         2.67178
| 31>    H        7.30510         0.54371         2.49678
| 32>    H        6.98693         2.37275        -1.41001
| 33>    H        4.55282         2.35109        -1.21386
| 34>    H        9.24612         0.80732         1.25358
| 35>    H        8.79792         0.87448        -1.78414
| 36>    H        8.70009        -0.55619        -0.74548
| 37>    H       10.24379         0.28017        -0.97464
| 38>    H        8.07580         3.64641         0.78834
| 39> *
| 40>
| 41>                          ****END OF INPUT****
 Total Charge           Charge          ....    0
 Multiplicity           Mult            ....    1
 Number of Electrons    NEL             ....  112
FINAL SINGLE POINT ENERGY      -657.060206099582
FINAL SINGLE POINT ENERGY      -657.062783940608
FINAL SINGLE POINT ENERGY      -657.063636691078
FINAL SINGLE POINT ENERGY      -657.063744665153
FINAL SINGLE POINT ENERGY      -657.064004743243
FINAL SINGLE POINT ENERGY      -657.064100866329
FINAL SINGLE POINT ENERGY      -657.064215415528
FINAL SINGLE POINT ENERGY      -657.064278710293
FINAL SINGLE POINT ENERGY      -657.064385065939
FINAL SINGLE POINT ENERGY      -657.064452020361
FINAL SINGLE POINT ENERGY      -657.064499954902
FINAL SINGLE POINT ENERGY      -657.064544637284
FINAL SINGLE POINT ENERGY      -657.064591368059
FINAL SINGLE POINT ENERGY      -657.064623539701
FINAL SINGLE POINT ENERGY      -657.064647338653
FINAL SINGLE POINT ENERGY      -657.064663314073
FINAL SINGLE POINT ENERGY      -657.064671576297
FINAL SINGLE POINT ENERGY      -657.064673358400
                    ***********************HURRAY********************

CARTESIAN COORDINATES (ANGSTROEM)
---------------------------------
  C      2.723327    3.682306    1.618273
  C      2.424427    2.210590    1.934939
  C      0.917103    1.985969    2.122477
  C      2.969511    1.258814    0.838426
  C      4.475130    1.270387    0.698005
  C      5.291825    0.658422    1.659432
  C      6.682700    0.681458    1.544415
  C      7.304377    1.314916    0.459798
  C      6.491797    1.925175   -0.506617
  C      5.102728    1.901582   -0.386402
  C      8.822610    1.314148    0.325074
  C      9.320386    0.521156   -0.892840
  C      9.396203    2.734648    0.332891
  O      8.905859    3.570368    1.285874
  O     10.263827    3.144814   -0.413312
  H      2.356941    4.332168    2.421277
  H      2.227072    3.983419    0.686666
  H      3.798152    3.859508    1.502090
  H      2.928712    1.950921    2.876788
  H      0.372939    2.219913    1.198415
  H      0.522200    2.629148    2.917419
  H      0.702238    0.944125    2.387265
  H      2.511865    1.529649   -0.121972
  H      2.638512    0.240054    1.079369
  H      4.835671    0.151572    2.507531
  H      7.295073    0.194857    2.300939
  H      6.945043    2.423145   -1.361551
  H      4.492541    2.380349   -1.149358
  H      9.228770    0.848932    1.235302
  H      8.948906    0.960362   -1.823494
  H      8.963227   -0.510575   -0.827631
  H     10.413221    0.514128   -0.925879
  H      8.189178    3.126623    1.783231

 Multiplicity           Mult            ....    1
 Number of Electrons    NEL             ....  112
 Basis Dimension        Dim             ....  573

ORBITAL ENERGIES
----------------

  NO   OCC          E(Eh)            E(eV)
   0   2.0000     -18.931869      -515.1623
   1   2.0000     -18.878237      -513.7029
   2   2.0000     -10.116608      -275.2869
   3   2.0000     -10.015072      -272.5240
   4   2.0000     -10.001634      -272.1583
   5   2.0000      -9.995041      -271.9789
   6   2.0000      -9.991448      -271.8811
   7   2.0000      -9.990914      -271.8666
   8   2.0000      -9.987947      -271.7858
   9   2.0000      -9.987687      -271.7788
  10   2.0000      -9.986561      -271.7481
  11   2.0000      -9.981967      -271.6231
  12   2.0000      -9.981330      -271.6058
  13   2.0000      -9.969381      -271.2806
  14   2.0000      -9.968355      -271.2527
  15   2.0000      -1.033104       -28.1122
  16   2.0000      -0.954493       -25.9731
  17   2.0000      -0.804699       -21.8970
  18   2.0000      -0.758296       -20.6343
  19   2.0000      -0.734131       -19.9767
  20   2.0000      -0.691194       -18.8083
  21   2.0000      -0.685300       -18.6480
  22   2.0000      -0.627257       -17.0685
  23   2.0000      -0.624649       -16.9976
  24   2.0000      -0.602409       -16.3924
  25   2.0000      -0.565373       -15.3846
  26   2.0000      -0.556491       -15.1429
  27   2.0000      -0.534676       -14.5493
  28   2.0000      -0.508665       -13.8415
  29   2.0000      -0.479308       -13.0426
  30   2.0000      -0.456196       -12.4137
  31   2.0000      -0.432070       -11.7572
  32   2.0000      -0.417210       -11.3529
  33   2.0000      -0.413643       -11.2558
  34   2.0000      -0.402182       -10.9439
  35   2.0000      -0.401612       -10.9284
  36   2.0000      -0.392711       -10.6862
  37   2.0000      -0.380651       -10.3580
  38   2.0000      -0.378942       -10.3115
  39   2.0000      -0.376059       -10.2331
  40   2.0000      -0.363278        -9.8853
  41   2.0000      -0.346136        -9.4188
  42   2.0000      -0.340945        -9.2776
  43   2.0000      -0.335446        -9.1280
  44   2.0000      -0.326277        -8.8784
  45   2.0000      -0.322066        -8.7639
  46   2.0000      -0.321505        -8.7486
  47   2.0000      -0.305578        -8.3152
  48   2.0000      -0.299300        -8.1444
  49   2.0000      -0.291548        -7.9334
  50   2.0000      -0.288180        -7.8418
  51   2.0000      -0.284559        -7.7432
  52   2.0000      -0.281353        -7.6560
  53   2.0000      -0.247705        -6.7404
  54   2.0000      -0.233111        -6.3433
  55   2.0000      -0.217065        -5.9066
  56   0.0000      -0.044381        -1.2077
  57   0.0000      -0.043975        -1.1966
  58   0.0000      -0.029672        -0.8074
  59   0.0000       0.023309         0.6343
  60   0.0000       0.035424         0.9639

MULLIKEN ATOMIC CHARGES
-----------------------
   0 C :   -0.387103
   1 C :   -0.015073
   2 C :   -0.361774
   3 C :   -0.174227
   4 C :    0.167693
   5 C :   -0.222340
   6 C :   -0.155820
   7 C :   -0.037777
   8 C :   -0.171705
   9 C :   -0.205217
  10 C :    0.056154
  11 C :   -0.394983
  12 C :    0.244330
  13 O :   -0.348265
  14 O :   -0.358678
  15 H :    0.122006
  16 H :    0.108217
  17 H :    0.128030
  18 H :    0.071225
  19 H :    0.111085
  20 H :    0.122002
  21 H :    0.120040
  22 H :    0.109602
  23 H :    0.106965
  24 H :    0.120023
  25 H :    0.121023
  26 H :    0.125853
  27 H :    0.115711
  28 H :    0.120673
  29 H :    0.131911
  30 H :    0.132187
  31 H :    0.133860
  32 H :    0.364374
Sum of atomic charges:    0.0000000

LOEWDIN ATOMIC CHARGES
----------------------
   0 C :   -0.284680
   1 C :   -0.294085
   2 C :   -0.286302
   3 C :   -0.191186
   4 C :   -0.141248
   5 C :   -0.108847
   6 C :   -0.114553
   7 C :   -0.146772
   8 C :   -0.106299
   9 C :   -0.111737
  10 C :   -0.210797
  11 C :   -0.259716
  12 C :   -0.465596
  13 O :    0.101972
  14 O :    0.068486
  15 H :    0.120106
  16 H :    0.120571
  17 H :    0.120213
  18 H :    0.148451
  19 H :    0.120231
  20 H :    0.119997
  21 H :    0.119320
  22 H :    0.145891
  23 H :    0.148262
  24 H :    0.152132
  25 H :    0.152921
  26 H :    0.154754
  27 H :    0.151363
  28 H :    0.183533
  29 H :    0.126190
  30 H :    0.127425
  31 H :    0.125561
  32 H :    0.214439

  Mayer bond orders larger than 0.100000
B(  0-C ,  1-C ) :   1.0083 B(  0-C , 15-H ) :   0.9661 B(  0-C , 16-H ) :   0.9636
B(  0-C , 17-H ) :   0.9644 B(  1-C ,  2-C ) :   0.9850 B(  1-C ,  3-C ) :   1.0028
B(  1-C , 18-H ) :   0.9364 B(  2-C , 19-H ) :   0.9645 B(  2-C , 20-H ) :   0.9672
B(  2-C , 21-H ) :   0.9663 B(  3-C ,  4-C ) :   0.9505 B(  3-C , 22-H ) :   0.9481
B(  3-C , 23-H ) :   0.9325 B(  4-C ,  5-C ) :   1.3161 B(  4-C ,  9-C ) :   1.3244
B(  5-C ,  6-C ) :   1.3926 B(  5-C , 24-H ) :   1.0000 B(  6-C ,  7-C ) :   1.3363
B(  6-C , 25-H ) :   0.9908 B(  7-C ,  8-C ) :   1.3359 B(  7-C , 10-C ) :   0.9245
B(  8-C ,  9-C ) :   1.4004 B(  8-C , 26-H ) :   0.9935 B(  9-C , 27-H ) :   0.9956
B( 10-C , 11-C ) :   0.9945 B( 10-C , 12-C ) :   0.9776 B( 10-C , 28-H ) :   0.8851
B( 11-C , 29-H ) :   0.9642 B( 11-C , 30-H ) :   0.9621 B( 11-C , 31-H ) :   0.9576
B( 12-C , 13-O ) :   1.2281 B( 12-C , 14-O ) :   2.0618 B( 13-O , 32-H ) :   0.8350

FINAL SINGLE POINT ENERGY      -657.064674259344

DIPOLE MOMENT
-------------
                                X             Y             Z
Electronic contribution:     19.13873       1.29299      -2.51100
Nuclear contribution   :    -20.96319      -2.66171       3.54204
                        -----------------------------------------
Total Dipole Moment    :     -1.82446      -1.36872       1.03104
                        -----------------------------------------
Magnitude (a.u.)       :      2.50302
Magnitude (Debye)      :      6.36217

Rotational constants in cm-1:     0.047593     0.008508     0.008012
Rotational constants in MHz :  1426.799936   255.063872   240.198420

                             ****ORCA TERMINATED NORMALLY****
TOTAL RUN TIME: 0 days 0 hours 31 minutes 17 seconds 879 msec
