                         Program Version 6.0.0  -   RELEASE   -
|  1> # ORCA input file
|  2> #
|  3> !B3LYP STO-3G Opt CPCM(WATER)
|  4> * xyz 0 1
|  5>    O        2.14551        -0.60885         0.52181
|  6>    C        2.63420        -1.80737         0.13543
|  7>    O        2.17162        -2.83239         0.62109
|  8>    C        3.65654        -1.73250        -0.95851
|  9>    C        4.96102        -1.03926        -0.61508
| 10>    C        6.12539        -1.84007        -0.61083
| 11>    C        7.39004        -1.27991        -0.47544
| 12>    C        7.51670         0.09058        -0.30438
| 13>    C        6.37165         0.89145        -0.25876
| 14>    C        5.08221         0.35792        -0.43094
| 15>    N        3.94879         1.20390        -0.53378
| 16>    C        3.84026         2.58058        -0.86585
| 17>    C        4.60199         3.19619        -1.88448
| 18>   Cl        5.54000         2.29292        -3.03255
| 19>    C        4.53823         4.57834        -2.11797
| 20>    C        3.67875         5.38423        -1.37796
| 21>    C        2.87476         4.80277        -0.40530
| 22>    C        2.95948         3.42647        -0.14720
| 23>   Cl        1.91108         2.79105         1.07992
| 24>    H        1.46203        -0.84108         1.18918
| 25>    H        3.20949        -1.27698        -1.84977
| 26>    H        3.86501        -2.77055        -1.24335
| 27>    H        6.05372        -2.91564        -0.76619
| 28>    H        8.27654        -1.91040        -0.52459
| 29>    H        8.50112         0.54295        -0.23421
| 30>    H        6.50961         1.96135        -0.11755
| 31>    H        3.12683         0.82883        -0.05232
| 32>    H        5.14146         5.02526        -2.90632
| 33>    H        3.62186         6.44998        -1.58160
| 34>    H        2.17804         5.43109         0.14743
| 35> *
| 36>
| 37>                          ****END OF INPUT****
 Total Charge           Charge          ....    0
 Multiplicity           Mult            ....    1
 Number of Electrons    NEL             ....  152
FINAL SINGLE POINT ENERGY     -1645.683639320998
FINAL SINGLE POINT ENERGY     -1645.709492772203
FINAL SINGLE POINT ENERGY     -1645.715371059842
FINAL SINGLE POINT ENERGY     -1645.718010035424
FINAL SINGLE POINT ENERGY     -1645.717851177137
FINAL SINGLE POINT ENERGY     -1645.717863214733
FINAL SINGLE POINT ENERGY     -1645.719479912846
FINAL SINGLE POINT ENERGY     -1645.720120576962
FINAL SINGLE POINT ENERGY     -1645.720399597715
FINAL SINGLE POINT ENERGY     -1645.720499659264
FINAL SINGLE POINT ENERGY     -1645.720530526904
FINAL SINGLE POINT ENERGY     -1645.720558841688
FINAL SINGLE POINT ENERGY     -1645.720564309783
FINAL SINGLE POINT ENERGY     -1645.720565690465
                    ***********************HURRAY********************

CARTESIAN COORDINATES (ANGSTROEM)
---------------------------------
  O      2.007986   -0.415122    0.121162
  C      2.659745   -1.701081    0.169649
  O      2.430628   -2.521090    1.078665
  C      3.645883   -1.806396   -1.048188
  C      4.993165   -1.111399   -0.751307
  C      6.159815   -1.885612   -0.578562
  C      7.409993   -1.284740   -0.335378
  C      7.498021    0.119035   -0.246341
  C      6.350642    0.914507   -0.395214
  C      5.084979    0.318512   -0.656777
  N      3.875576    1.089815   -0.782414
  C      3.855180    2.507162   -0.924842
  C      4.552981    3.213988   -1.963932
  Cl     5.522486    2.284564   -3.183911
  C      4.479409    4.611509   -2.122148
  C      3.662531    5.373171   -1.263022
  C      2.921205    4.731012   -0.251473
  C      3.029652    3.336952   -0.092034
  Cl     2.083570    2.556857    1.247817
  H      1.512225   -0.322146    1.010862
  H      3.154623   -1.340342   -1.922869
  H      3.816736   -2.875400   -1.257844
  H      6.083520   -2.979635   -0.651245
  H      8.306180   -1.906751   -0.214365
  H      8.465640    0.599456   -0.045075
  H      6.418018    2.004676   -0.295088
  H      3.003651    0.609611   -0.347320
  H      5.042565    5.092402   -2.933754
  H      3.594835    6.461826   -1.389060
  H      2.272488    5.305519    0.423937

 Multiplicity           Mult            ....    1
 Number of Electrons    NEL             ....  152
 Basis Dimension        Dim             ....  114

ORBITAL ENERGIES
----------------

  NO   OCC          E(Eh)            E(eV)
   0   2.0000    -100.457467     -2733.5866
   1   2.0000    -100.454689     -2733.5111
   2   2.0000     -18.968249      -516.1523
   3   2.0000     -18.904299      -514.4121
   4   2.0000     -14.150780      -385.0623
   5   2.0000     -10.126086      -275.5448
   6   2.0000     -10.085858      -274.4501
   7   2.0000     -10.073218      -274.1062
   8   2.0000     -10.073103      -274.1031
   9   2.0000     -10.050910      -273.4992
  10   2.0000     -10.041368      -273.2395
  11   2.0000     -10.032029      -272.9854
  12   2.0000     -10.031434      -272.9692
  13   2.0000     -10.022557      -272.7276
  14   2.0000     -10.012229      -272.4466
  15   2.0000     -10.000454      -272.1262
  16   2.0000     -10.000247      -272.1206
  17   2.0000      -9.996423      -272.0165
  18   2.0000      -9.992718      -271.9157
  19   2.0000      -9.258225      -251.9291
  20   2.0000      -9.255277      -251.8489
  21   2.0000      -7.036378      -191.4696
  22   2.0000      -7.033554      -191.3927
  23   2.0000      -7.022017      -191.0788
  24   2.0000      -7.021689      -191.0699
  25   2.0000      -7.019108      -190.9996
  26   2.0000      -7.018597      -190.9857
  27   2.0000      -1.034635       -28.1539
  28   2.0000      -0.959847       -26.1188
  29   2.0000      -0.887698       -24.1555
  30   2.0000      -0.831420       -22.6241
  31   2.0000      -0.801615       -21.8131
  32   2.0000      -0.790103       -21.4998
  33   2.0000      -0.759471       -20.6663
  34   2.0000      -0.735241       -20.0069
  35   2.0000      -0.703284       -19.1373
  36   2.0000      -0.682006       -18.5583
  37   2.0000      -0.674699       -18.3595
  38   2.0000      -0.654406       -17.8073
  39   2.0000      -0.579370       -15.7655
  40   2.0000      -0.561143       -15.2695
  41   2.0000      -0.551677       -15.0119
  42   2.0000      -0.544436       -14.8149
  43   2.0000      -0.522883       -14.2284
  44   2.0000      -0.487977       -13.2785
  45   2.0000      -0.473839       -12.8938
  46   2.0000      -0.448972       -12.2171
  47   2.0000      -0.435227       -11.8431
  48   2.0000      -0.427708       -11.6385
  49   2.0000      -0.423439       -11.5224
  50   2.0000      -0.404764       -11.0142
  51   2.0000      -0.399782       -10.8786
  52   2.0000      -0.386305       -10.5119
  53   2.0000      -0.382828       -10.4173
  54   2.0000      -0.377704       -10.2778
  55   2.0000      -0.372537       -10.1372
  56   2.0000      -0.350665        -9.5421
  57   2.0000      -0.348305        -9.4779
  58   2.0000      -0.340082        -9.2541
  59   2.0000      -0.333632        -9.0786
  60   2.0000      -0.327727        -8.9179
  61   2.0000      -0.315378        -8.5819
  62   2.0000      -0.300553        -8.1785
  63   2.0000      -0.298207        -8.1146
  64   2.0000      -0.292220        -7.9517
  65   2.0000      -0.281738        -7.6665
  66   2.0000      -0.260010        -7.0752
  67   2.0000      -0.254655        -6.9295
  68   2.0000      -0.252800        -6.8790
  69   2.0000      -0.245311        -6.6753
  70   2.0000      -0.216851        -5.9008
  71   2.0000      -0.197039        -5.3617
  72   2.0000      -0.193315        -5.2604
  73   2.0000      -0.192643        -5.2421
  74   2.0000      -0.171686        -4.6718
  75   2.0000      -0.123126        -3.3504
  76   0.0000       0.060236         1.6391
  77   0.0000       0.063199         1.7197
  78   0.0000       0.075225         2.0470
  79   0.0000       0.096609         2.6289
  80   0.0000       0.097411         2.6507

MULLIKEN ATOMIC CHARGES
-----------------------
   0 O :   -0.222597
   1 C :    0.232837
   2 O :   -0.202288
   3 C :   -0.159232
   4 C :   -0.016653
   5 C :   -0.085498
   6 C :   -0.097111
   7 C :   -0.085316
   8 C :   -0.097686
   9 C :    0.076391
  10 N :   -0.320685
  11 C :    0.090280
  12 C :    0.019294
  13 Cl:   -0.136635
  14 C :   -0.073486
  15 C :   -0.078527
  16 C :   -0.073696
  17 C :    0.018340
  18 Cl:   -0.142340
  19 H :    0.253375
  20 H :    0.104913
  21 H :    0.104085
  22 H :    0.083874
  23 H :    0.081388
  24 H :    0.084068
  25 H :    0.084242
  26 H :    0.238542
  27 H :    0.108762
  28 H :    0.101977
  29 H :    0.109381
Sum of atomic charges:   -0.0000000

LOEWDIN ATOMIC CHARGES
----------------------
   0 O :   -0.126293
   1 C :    0.164576
   2 O :   -0.150085
   3 C :   -0.089382
   4 C :   -0.022206
   5 C :   -0.051015
   6 C :   -0.064608
   7 C :   -0.046422
   8 C :   -0.073476
   9 C :    0.057812
  10 N :   -0.193694
  11 C :    0.056010
  12 C :    0.002755
  13 Cl:   -0.103209
  14 C :   -0.043887
  15 C :   -0.043664
  16 C :   -0.043899
  17 C :    0.001491
  18 Cl:   -0.107640
  19 H :    0.193356
  20 H :    0.064465
  21 H :    0.063692
  22 H :    0.046990
  23 H :    0.045059
  24 H :    0.046984
  25 H :    0.047977
  26 H :    0.172232
  27 H :    0.067110
  28 H :    0.061301
  29 H :    0.067672

  Mayer bond orders larger than 0.100000
B(  0-O ,  1-C ) :   0.9744 B(  0-O ,  2-O ) :   0.2161 B(  0-O , 19-H ) :   0.8933
B(  0-O , 26-H ) :   0.1607 B(  1-C ,  2-O ) :   1.9520 B(  1-C ,  3-C ) :   0.9113
B(  3-C ,  4-C ) :   0.9835 B(  3-C , 20-H ) :   0.9524 B(  3-C , 21-H ) :   0.9615
B(  4-C ,  5-C ) :   1.4249 B(  4-C ,  7-C ) :   0.1029 B(  4-C ,  9-C ) :   1.3196
B(  5-C ,  6-C ) :   1.4228 B(  5-C ,  8-C ) :   0.1033 B(  5-C , 22-H ) :   0.9604
B(  6-C ,  7-C ) :   1.4151 B(  6-C , 23-H ) :   0.9631 B(  7-C ,  8-C ) :   1.4484
B(  7-C , 24-H ) :   0.9622 B(  8-C ,  9-C ) :   1.3532 B(  8-C , 25-H ) :   0.9589
B(  9-C , 10-N ) :   1.0667 B( 10-N , 11-C ) :   1.1069 B( 10-N , 26-H ) :   0.7343
B( 11-C , 12-C ) :   1.3051 B( 11-C , 17-C ) :   1.3079 B( 12-C , 13-Cl) :   0.9510
B( 12-C , 14-C ) :   1.4235 B( 14-C , 15-C ) :   1.4143 B( 14-C , 27-H ) :   0.9563
B( 15-C , 16-C ) :   1.4143 B( 15-C , 28-H ) :   0.9582 B( 16-C , 17-C ) :   1.4232
B( 16-C , 29-H ) :   0.9562 B( 17-C , 18-Cl) :   0.9456

FINAL SINGLE POINT ENERGY     -1645.720566105774

DIPOLE MOMENT
-------------

Method             : SCF
Type of density    : Electron Density
Multiplicity       :   1
Irrep              :   0
Energy             : -1645.7205661057735142 Eh
Relativity type    :
Basis              : AO
                                X                 Y                 Z
Electronic contribution:     -6.894490345       6.263495787      -0.165324087
Nuclear contribution   :      6.148804585      -5.840480676       0.478876151
                        -----------------------------------------
Total Dipole Moment    :     -0.745685759       0.423015111       0.313552065
                        -----------------------------------------
Magnitude (a.u.)       :      0.912854826
Magnitude (Debye)      :      2.320292571

Rotational constants in cm-1:             0.013173             0.008910             0.006187
Rotational constants in MHz :           394.913463           267.105845           185.480861

                             ****ORCA TERMINATED NORMALLY****
TOTAL RUN TIME: 0 days 0 hours 10 minutes 16 seconds 670 msec
