                         Program Version 5.0.4 -  RELEASE  -
|  1> # ORCA input file
|  2> #
|  3> !TPSS 6-311+G** Opt CPCM(WATER)
|  4>
|  5> * xyz 0 1
|  6>    C        2.51158         1.94756         2.60573
|  7>    C        2.25536         0.96160         1.46447
|  8>    C        0.74524         0.81106         1.24936
|  9>    C        2.92580         1.40939         0.15172
| 10>    C        4.43034         1.55789         0.20717
| 11>    C        5.26167         0.46240         0.46590
| 12>    C        6.65476         0.59883         0.42551
| 13>    C        7.24791         1.83155         0.11193
| 14>    C        6.41047         2.93519        -0.11026
| 15>    C        5.02103         2.79876        -0.06128
| 16>    C        8.76102         1.93225        -0.05663
| 17>    C        9.09540         2.35216        -1.49427
| 18>    C        9.51272         2.83111         0.91923
| 19>    O        8.80891         3.32035         1.96468
| 20>    O       10.70739         3.08621         0.80213
| 21>    H        2.02343         1.60730         3.52519
| 22>    H        2.12250         2.94266         2.36454
| 23>    H        3.58050         2.04224         2.81968
| 24>    H        2.65201        -0.01745         1.76022
| 25>    H        0.28537         1.76747         0.97560
| 26>    H        0.25582         0.45223         2.16115
| 27>    H        0.53153         0.09307         0.45069
| 28>    H        2.47657         2.35652        -0.17573
| 29>    H        2.69614         0.68540        -0.64197
| 30>    H        4.83180        -0.51614         0.67097
| 31>    H        7.26813        -0.28320         0.60297
| 32>    H        6.82783         3.91067        -0.35575
| 33>    H        4.39927         3.66864        -0.26536
| 34>    H        9.18294         0.93039         0.10471
| 35>    H        8.71034         3.35199        -1.72490
| 36>    H        8.66417         1.65151        -2.21781
| 37>    H       10.17758         2.38088        -1.65965
| 38>    H        7.87163         3.04560         1.99566
| 39> *
| 40>
| 41>                          ****END OF INPUT****
 Total Charge           Charge          ....    0
 Multiplicity           Mult            ....    1
 Number of Electrons    NEL             ....  112
FINAL SINGLE POINT ENERGY      -656.995767413314
FINAL SINGLE POINT ENERGY      -656.998165068670
FINAL SINGLE POINT ENERGY      -656.999009484009
FINAL SINGLE POINT ENERGY      -656.999148351142
FINAL SINGLE POINT ENERGY      -656.999358464313
FINAL SINGLE POINT ENERGY      -656.999441832163
FINAL SINGLE POINT ENERGY      -656.999536803372
FINAL SINGLE POINT ENERGY      -656.999606157470
FINAL SINGLE POINT ENERGY      -656.999722391657
FINAL SINGLE POINT ENERGY      -656.999787368558
FINAL SINGLE POINT ENERGY      -656.999821314655
FINAL SINGLE POINT ENERGY      -656.999845880008
FINAL SINGLE POINT ENERGY      -656.999853121366
FINAL SINGLE POINT ENERGY      -656.999857298493
FINAL SINGLE POINT ENERGY      -656.999860374454
FINAL SINGLE POINT ENERGY      -656.999861879564
FINAL SINGLE POINT ENERGY      -656.999862899026
                    ***********************HURRAY********************

CARTESIAN COORDINATES (ANGSTROEM)
---------------------------------
  C      2.574028    2.197999    2.521837
  C      2.313158    1.057832    1.522347
  C      0.809659    0.741451    1.429940
  C      2.874722    1.384104    0.110281
  C      4.381736    1.540310    0.061368
  C      5.224015    0.424895    0.214143
  C      6.615874    0.561101    0.184186
  C      7.212979    1.819415   -0.004515
  C      6.374616    2.937740   -0.161874
  C      4.983754    2.797169   -0.127166
  C      8.731847    1.955683   -0.072186
  C      9.239474    2.389899   -1.460777
  C      9.287774    2.868092    1.030659
  O      8.691473    2.771926    2.250553
  O     10.236761    3.621198    0.900483
  H      2.191976    1.934748    3.516315
  H      2.068271    3.118332    2.197495
  H      3.645211    2.414743    2.616042
  H      2.831527    0.156843    1.884013
  H      0.253290    1.613568    1.059244
  H      0.404886    0.476878    2.415047
  H      0.622569   -0.096479    0.746287
  H      2.399465    2.304872   -0.255759
  H      2.577109    0.573281   -0.569668
  H      4.787442   -0.563143    0.352632
  H      7.247551   -0.318326    0.300738
  H      6.808660    3.925287   -0.312290
  H      4.354377    3.676900   -0.252274
  H      9.158768    0.967399    0.159179
  H      8.850463    3.378550   -1.727628
  H      8.903551    1.668029   -2.212161
  H     10.332988    2.430500   -1.473992
  H      7.917186    2.175293    2.193097

 Multiplicity           Mult            ....    1
 Number of Electrons    NEL             ....  112
 Basis Dimension        Dim             ....  438

ORBITAL ENERGIES
----------------

  NO   OCC          E(Eh)            E(eV)
   0   2.0000     -18.932787      -515.1873
   1   2.0000     -18.880609      -513.7675
   2   2.0000     -10.122349      -275.4431
   3   2.0000     -10.018619      -272.6205
   4   2.0000     -10.004448      -272.2349
   5   2.0000      -9.998150      -272.0635
   6   2.0000      -9.994348      -271.9600
   7   2.0000      -9.993979      -271.9500
   8   2.0000      -9.990526      -271.8560
   9   2.0000      -9.990055      -271.8432
  10   2.0000      -9.987923      -271.7852
  11   2.0000      -9.983247      -271.6580
  12   2.0000      -9.982538      -271.6387
  13   2.0000      -9.969564      -271.2856
  14   2.0000      -9.968596      -271.2593
  15   2.0000      -1.038478       -28.2584
  16   2.0000      -0.960140       -26.1267
  17   2.0000      -0.806611       -21.9490
  18   2.0000      -0.759654       -20.6712
  19   2.0000      -0.735121       -20.0037
  20   2.0000      -0.693703       -18.8766
  21   2.0000      -0.687077       -18.6963
  22   2.0000      -0.628403       -17.0997
  23   2.0000      -0.625446       -17.0193
  24   2.0000      -0.605044       -16.4641
  25   2.0000      -0.567943       -15.4545
  26   2.0000      -0.560191       -15.2436
  27   2.0000      -0.536929       -14.6106
  28   2.0000      -0.509569       -13.8661
  29   2.0000      -0.481829       -13.1112
  30   2.0000      -0.457842       -12.4585
  31   2.0000      -0.433329       -11.7915
  32   2.0000      -0.420451       -11.4410
  33   2.0000      -0.415272       -11.3001
  34   2.0000      -0.404656       -11.0112
  35   2.0000      -0.403471       -10.9790
  36   2.0000      -0.392493       -10.6803
  37   2.0000      -0.383198       -10.4273
  38   2.0000      -0.380767       -10.3612
  39   2.0000      -0.377808       -10.2807
  40   2.0000      -0.364498        -9.9185
  41   2.0000      -0.347791        -9.4639
  42   2.0000      -0.341321        -9.2878
  43   2.0000      -0.335526        -9.1301
  44   2.0000      -0.327463        -8.9107
  45   2.0000      -0.324604        -8.8329
  46   2.0000      -0.322963        -8.7883
  47   2.0000      -0.307131        -8.3575
  48   2.0000      -0.301708        -8.2099
  49   2.0000      -0.292558        -7.9609
  50   2.0000      -0.290813        -7.9134
  51   2.0000      -0.285541        -7.7700
  52   2.0000      -0.282219        -7.6796
  53   2.0000      -0.250863        -6.8263
  54   2.0000      -0.234251        -6.3743
  55   2.0000      -0.218833        -5.9547
  56   0.0000      -0.047590        -1.2950
  57   0.0000      -0.047101        -1.2817
  58   0.0000      -0.036449        -0.9918
  59   0.0000      -0.006866        -0.1868
  60   0.0000       0.006863         0.1868

MULLIKEN ATOMIC CHARGES
-----------------------
   0 C :   -0.762481
   1 C :    0.648827
   2 C :   -0.867306
   3 C :   -1.406287
   4 C :    2.014179
   5 C :   -0.688150
   6 C :   -0.490662
   7 C :    1.113853
   8 C :   -0.952298
   9 C :   -0.620853
  10 C :    0.050697
  11 C :   -0.728184
  12 C :   -0.055314
  13 O :   -0.192020
  14 O :   -0.338711
  15 H :    0.162475
  16 H :    0.169237
  17 H :    0.170269
  18 H :    0.156287
  19 H :    0.167430
  20 H :    0.162306
  21 H :    0.162592
  22 H :    0.179703
  23 H :    0.185689
  24 H :    0.154831
  25 H :    0.157453
  26 H :    0.167845
  27 H :    0.152426
  28 H :    0.227682
  29 H :    0.193237
  30 H :    0.179306
  31 H :    0.179861
  32 H :    0.346079
Sum of atomic charges:   -0.0000000

LOEWDIN ATOMIC CHARGES
----------------------
   0 C :   -0.120053
   1 C :   -0.163457
   2 C :   -0.123320
   3 C :   -0.106737
   4 C :   -0.111671
   5 C :   -0.061170
   6 C :   -0.055712
   7 C :   -0.139703
   8 C :   -0.056522
   9 C :   -0.063091
  10 C :   -0.115804
  11 C :   -0.078857
  12 C :   -0.005026
  13 O :   -0.056947
  14 O :   -0.216767
  15 H :    0.059770
  16 H :    0.068720
  17 H :    0.066792
  18 H :    0.075086
  19 H :    0.065060
  20 H :    0.059016
  21 H :    0.059332
  22 H :    0.086479
  23 H :    0.085526
  24 H :    0.089842
  25 H :    0.090086
  26 H :    0.096024
  27 H :    0.088929
  28 H :    0.115708
  29 H :    0.075955
  30 H :    0.071830
  31 H :    0.069412
  32 H :    0.151272

  Mayer bond orders larger than 0.100000
B(  0-C ,  1-C ) :   0.6358 B(  0-C ,  2-C ) :  -0.1548 B(  0-C , 15-H ) :   1.0133
B(  0-C , 16-H ) :   1.0117 B(  0-C , 17-H ) :   1.0000 B(  1-C ,  2-C ) :   0.4294
B(  1-C ,  3-C ) :   0.4400 B(  1-C ,  5-C ) :   0.1083 B(  1-C , 18-H ) :   0.9827
B(  2-C ,  3-C ) :   0.5245 B(  2-C ,  4-C ) :  -0.4486 B(  2-C ,  5-C ) :   0.1172
B(  2-C , 19-H ) :   1.0377 B(  2-C , 20-H ) :   1.0066 B(  2-C , 21-H ) :   1.0046
B(  3-C ,  4-C ) :  -1.4198 B(  3-C ,  5-C ) :   0.3675 B(  3-C ,  6-C ) :   0.1067
B(  3-C ,  7-C ) :  -0.1759 B(  3-C ,  8-C ) :   0.1637 B(  3-C , 22-H ) :   1.3212
B(  3-C , 23-H ) :   1.1622 B(  4-C ,  5-C ) :   0.9657 B(  4-C ,  7-C ) :   0.6102
B(  4-C ,  8-C ) :  -0.2595 B(  4-C ,  9-C ) :   1.1646 B(  4-C , 10-C ) :  -0.1693
B(  4-C , 18-H ) :  -0.1337 B(  4-C , 22-H ) :  -0.5110 B(  4-C , 23-H ) :  -0.2223
B(  5-C ,  6-C ) :   1.0402 B(  5-C ,  9-C ) :   0.4858 B(  5-C , 24-H ) :   1.0422
B(  6-C ,  7-C ) :   1.2558 B(  6-C ,  8-C ) :   0.4078 B(  6-C ,  9-C ) :  -0.2682
B(  6-C , 12-C ) :  -0.1932 B(  6-C , 13-O ) :  -0.1505 B(  6-C , 24-H ) :  -0.1096
B(  6-C , 25-H ) :   1.0085 B(  6-C , 28-H ) :   0.1376 B(  6-C , 32-H ) :  -0.1010
B(  7-C ,  8-C ) :   1.1156 B(  7-C ,  9-C ) :  -0.1051 B(  7-C , 10-C ) :   0.2359
B(  7-C , 11-C ) :  -0.4205 B(  7-C , 12-C ) :  -0.4000 B(  7-C , 13-O ) :   0.4070
B(  7-C , 28-H ) :  -0.3214 B(  7-C , 29-H ) :  -0.1792 B(  7-C , 32-H ) :   0.1950
B(  8-C ,  9-C ) :   1.1353 B(  8-C , 11-C ) :   0.4086 B(  8-C , 12-C ) :   0.5858
B(  8-C , 14-O ) :  -0.1671 B(  8-C , 26-H ) :   0.9910 B(  9-C , 10-C ) :   0.2684
B(  9-C , 22-H ) :   0.1959 B(  9-C , 27-H ) :   1.0042 B( 10-C , 11-C ) :   0.8618
B( 10-C , 12-C ) :   0.8463 B( 10-C , 13-O ) :  -0.3170 B( 10-C , 28-H ) :   1.0755
B( 10-C , 29-H ) :   0.1091 B( 11-C , 12-C ) :  -0.1044 B( 11-C , 29-H ) :   0.9622
B( 11-C , 30-H ) :   1.0049 B( 11-C , 31-H ) :   0.9923 B( 12-C , 13-O ) :   1.3615
B( 12-C , 14-O ) :   2.0569 B( 13-O , 32-H ) :   0.8218

FINAL SINGLE POINT ENERGY      -656.999863282486

DIPOLE MOMENT
-------------
                                X             Y             Z
Electronic contribution:     19.10460       3.46725      -0.38104
Nuclear contribution   :    -21.09482      -5.10235      -0.15755
                        -----------------------------------------
Total Dipole Moment    :     -1.99023      -1.63511      -0.53859
                        -----------------------------------------
Magnitude (a.u.)       :      2.63148
Magnitude (Debye)      :      6.68868

Rotational constants in cm-1:     0.048346     0.008432     0.007928
Rotational constants in MHz :  1449.364531   252.772383   237.677464

                             ****ORCA TERMINATED NORMALLY****
TOTAL RUN TIME: 0 days 0 hours 27 minutes 56 seconds 816 msec
