                         Program Version 5.0.4 -  RELEASE  -
|  1> # ORCA input file
|  2> #
|  3> !B3LYP STO-3G Opt CPCM(WATER)
|  4>
|  5> * xyz 0 1
|  6>    H        1.10619        -0.41173         0.44946
|  7>    C        2.05472        -0.09997        -0.01088
|  8>    C        1.78114         1.22654        -0.72627
|  9>    C        3.00148         0.16410         1.15800
| 10>    O        4.21906        -0.41471         1.09831
| 11>    O        2.69655         0.88218         2.10441
| 12>    C        2.45732        -1.23816        -0.94689
| 13>    C        2.18816        -2.56754        -0.56568
| 14>    C        2.54026        -3.63999        -1.39981
| 15>    C        3.11867        -3.39013        -2.64579
| 16>    C        3.40208        -2.08206        -3.02965
| 17>    C        3.09074        -1.01686        -2.18108
| 18>    C        2.28814        -5.05345        -1.01778
| 19>    O        1.92369        -5.84096        -1.88874
| 20>    C        2.48736        -5.53509         0.37656
| 21>    C        3.38324        -4.91612         1.25763
| 22>    C        3.53442        -5.40007         2.55916
| 23>    C        2.81363        -6.51774         2.97615
| 24>    C        1.94583        -7.15902         2.09338
| 25>    C        1.78392        -6.67147         0.79507
| 26>    H        1.38597         1.97331        -0.02864
| 27>    H        1.04568         1.09707        -1.52796
| 28>    H        2.69333         1.65214        -1.15938
| 29>    H        4.38866        -0.94038         0.29238
| 30>    H        1.68159        -2.76323         0.37910
| 31>    H        3.34990        -4.21443        -3.31826
| 32>    H        3.85712        -1.89097        -3.99963
| 33>    H        3.33154        -0.01245        -2.52320
| 34>    H        3.98601        -4.06692         0.95063
| 35>    H        4.22100        -4.90994         3.24509
| 36>    H        2.93721        -6.89734         3.98748
| 37>    H        1.39738        -8.04156         2.41344
| 38>    H        1.11007        -7.18267         0.11004
| 39> *
| 40>
| 41>                          ****END OF INPUT****
 Total Charge           Charge          ....    0
 Multiplicity           Mult            ....    1
 Number of Electrons    NEL             ....  134
FINAL SINGLE POINT ENERGY      -832.594503328593
FINAL SINGLE POINT ENERGY      -832.617993971147
FINAL SINGLE POINT ENERGY      -832.620670216440
FINAL SINGLE POINT ENERGY      -832.621123431608
FINAL SINGLE POINT ENERGY      -832.621304194693
FINAL SINGLE POINT ENERGY      -832.621406400501
FINAL SINGLE POINT ENERGY      -832.621512856192
FINAL SINGLE POINT ENERGY      -832.621589044263
FINAL SINGLE POINT ENERGY      -832.621650515882
FINAL SINGLE POINT ENERGY      -832.621672823346
FINAL SINGLE POINT ENERGY      -832.622670111465
FINAL SINGLE POINT ENERGY      -832.622730904607
FINAL SINGLE POINT ENERGY      -832.622784939131
FINAL SINGLE POINT ENERGY      -832.622827133379
FINAL SINGLE POINT ENERGY      -832.622836607248
FINAL SINGLE POINT ENERGY      -832.622848371696
FINAL SINGLE POINT ENERGY      -832.622851588108
FINAL SINGLE POINT ENERGY      -832.622853241986
FINAL SINGLE POINT ENERGY      -832.622853741368
                    ***********************HURRAY********************

CARTESIAN COORDINATES (ANGSTROEM)
---------------------------------
  H      1.833978   -0.571558    1.022433
  C      2.255124   -0.099881    0.112205
  C      1.200641    0.893418   -0.468980
  C      3.550613    0.708517    0.586413
  O      4.688890   -0.087494    0.888488
  O      3.612226    1.948629    0.735041
  C      2.630752   -1.229845   -0.878432
  C      2.403782   -2.583185   -0.534540
  C      2.737593   -3.629970   -1.429377
  C      3.297263   -3.307224   -2.690043
  C      3.543202   -1.964787   -3.036190
  C      3.215066   -0.932161   -2.136870
  C      2.433117   -5.111372   -1.118081
  O      2.167206   -5.924613   -2.047784
  C      2.462026   -5.575325    0.353546
  C      3.327717   -5.001671    1.317800
  C      3.356871   -5.503737    2.633416
  C      2.520344   -6.578093    3.001030
  C      1.662050   -7.162464    2.045215
  C      1.640288   -6.669014    0.727934
  H      1.008355    1.697977    0.257866
  H      0.255943    0.366986   -0.675336
  H      1.563418    1.347446   -1.403494
  H      4.392758   -1.042612    0.658715
  H      1.939147   -2.819687    0.432802
  H      3.538305   -4.120172   -3.390257
  H      3.988224   -1.720193   -4.010933
  H      3.408878    0.114847   -2.410236
  H      3.991490   -4.174282    1.031397
  H      4.035381   -5.057565    3.373931
  H      2.541125   -6.963472    4.030233
  H      1.015006   -8.004293    2.328819
  H      0.985278   -7.122769   -0.030079

 Multiplicity           Mult            ....    1
 Number of Electrons    NEL             ....  134
 Basis Dimension        Dim             ....  109

ORBITAL ENERGIES
----------------

  NO   OCC          E(Eh)            E(eV)
   0   2.0000     -18.923965      -514.9473
   1   2.0000     -18.888130      -513.9721
   2   2.0000     -18.864585      -513.3314
   3   2.0000     -10.096779      -274.7473
   4   2.0000     -10.082739      -274.3653
   5   2.0000     -10.038062      -273.1495
   6   2.0000     -10.021752      -272.7057
   7   2.0000     -10.018750      -272.6240
   8   2.0000     -10.016474      -272.5621
   9   2.0000     -10.012385      -272.4508
  10   2.0000     -10.012313      -272.4489
  11   2.0000     -10.011934      -272.4386
  12   2.0000     -10.011330      -272.4221
  13   2.0000     -10.011250      -272.4200
  14   2.0000     -10.010625      -272.4029
  15   2.0000     -10.010208      -272.3916
  16   2.0000     -10.009027      -272.3595
  17   2.0000     -10.008999      -272.3587
  18   2.0000     -10.008798      -272.3532
  19   2.0000      -1.004292       -27.3282
  20   2.0000      -0.972782       -26.4707
  21   2.0000      -0.932482       -25.3741
  22   2.0000      -0.814397       -22.1609
  23   2.0000      -0.805262       -21.9123
  24   2.0000      -0.749549       -20.3963
  25   2.0000      -0.718919       -19.5628
  26   2.0000      -0.701279       -19.0828
  27   2.0000      -0.696953       -18.9650
  28   2.0000      -0.685157       -18.6441
  29   2.0000      -0.608898       -16.5690
  30   2.0000      -0.595192       -16.1960
  31   2.0000      -0.566107       -15.4046
  32   2.0000      -0.562101       -15.2955
  33   2.0000      -0.545264       -14.8374
  34   2.0000      -0.508887       -13.8475
  35   2.0000      -0.490246       -13.3403
  36   2.0000      -0.474262       -12.9053
  37   2.0000      -0.456843       -12.4313
  38   2.0000      -0.444608       -12.0984
  39   2.0000      -0.422941       -11.5088
  40   2.0000      -0.415586       -11.3087
  41   2.0000      -0.400866       -10.9081
  42   2.0000      -0.398657       -10.8480
  43   2.0000      -0.383621       -10.4389
  44   2.0000      -0.378166       -10.2904
  45   2.0000      -0.377245       -10.2654
  46   2.0000      -0.364291        -9.9129
  47   2.0000      -0.349392        -9.5074
  48   2.0000      -0.340920        -9.2769
  49   2.0000      -0.339502        -9.2383
  50   2.0000      -0.329850        -8.9757
  51   2.0000      -0.322326        -8.7709
  52   2.0000      -0.314614        -8.5611
  53   2.0000      -0.310806        -8.4575
  54   2.0000      -0.301845        -8.2136
  55   2.0000      -0.299345        -8.1456
  56   2.0000      -0.290399        -7.9022
  57   2.0000      -0.283904        -7.7254
  58   2.0000      -0.277469        -7.5503
  59   2.0000      -0.264380        -7.1941
  60   2.0000      -0.201100        -5.4722
  61   2.0000      -0.197598        -5.3769
  62   2.0000      -0.196896        -5.3578
  63   2.0000      -0.188797        -5.1374
  64   2.0000      -0.179845        -4.8938
  65   2.0000      -0.148976        -4.0539
  66   2.0000      -0.145617        -3.9624
  67   0.0000       0.026995         0.7346
  68   0.0000       0.076487         2.0813
  69   0.0000       0.078986         2.1493
  70   0.0000       0.085671         2.3312
  71   0.0000       0.107596         2.9278

MULLIKEN ATOMIC CHARGES
-----------------------
   0 H :    0.093592
   1 C :   -0.077832
   2 C :   -0.217786
   3 C :    0.207899
   4 O :   -0.230356
   5 O :   -0.230590
   6 C :   -0.014665
   7 C :   -0.082619
   8 C :   -0.023687
   9 C :   -0.076818
  10 C :   -0.081229
  11 C :   -0.080078
  12 C :    0.143189
  13 O :   -0.190228
  14 C :   -0.024694
  15 C :   -0.079812
  16 C :   -0.082052
  17 C :   -0.077944
  18 C :   -0.082511
  19 C :   -0.077530
  20 H :    0.084351
  21 H :    0.082857
  22 H :    0.081981
  23 H :    0.218456
  24 H :    0.092210
  25 H :    0.092019
  26 H :    0.091607
  27 H :    0.091153
  28 H :    0.091181
  29 H :    0.089654
  30 H :    0.090089
  31 H :    0.089750
  32 H :    0.090443
Sum of atomic charges:   -0.0000000

LOEWDIN ATOMIC CHARGES
----------------------
   0 H :    0.053848
   1 C :   -0.040257
   2 C :   -0.116862
   3 C :    0.135663
   4 O :   -0.145022
   5 O :   -0.180797
   6 C :   -0.007850
   7 C :   -0.049091
   8 C :   -0.027314
   9 C :   -0.039704
  10 C :   -0.043497
  11 C :   -0.044097
  12 C :    0.107805
  13 O :   -0.138048
  14 C :   -0.028581
  15 C :   -0.042578
  16 C :   -0.044923
  17 C :   -0.038585
  18 C :   -0.045037
  19 C :   -0.040473
  20 H :    0.048439
  21 H :    0.047119
  22 H :    0.046374
  23 H :    0.163763
  24 H :    0.053592
  25 H :    0.052884
  26 H :    0.052711
  27 H :    0.052457
  28 H :    0.052663
  29 H :    0.051141
  30 H :    0.051402
  31 H :    0.051233
  32 H :    0.051621

  Mayer bond orders larger than 0.100000
B(  0-H ,  1-C ) :   0.9489 B(  1-C ,  2-C ) :   0.9829 B(  1-C ,  3-C ) :   0.8765
B(  1-C ,  6-C ) :   0.9779 B(  2-C , 20-H ) :   0.9741 B(  2-C , 21-H ) :   0.9763
B(  2-C , 22-H ) :   0.9762 B(  3-C ,  4-O ) :   1.0636 B(  3-C ,  5-O ) :   1.9025
B(  4-O ,  5-O ) :   0.2261 B(  4-O , 23-H ) :   0.9070 B(  6-C ,  7-C ) :   1.4107
B(  6-C ,  9-C ) :   0.1074 B(  6-C , 11-C ) :   1.3877 B(  7-C ,  8-C ) :   1.3864
B(  7-C , 10-C ) :   0.1061 B(  7-C , 24-H ) :   0.9550 B(  8-C ,  9-C ) :   1.3900
B(  8-C , 11-C ) :   0.1073 B(  8-C , 12-C ) :   0.9583 B(  9-C , 10-C ) :   1.4321
B(  9-C , 25-H ) :   0.9580 B( 10-C , 11-C ) :   1.4362 B( 10-C , 26-H ) :   0.9607
B( 11-C , 27-H ) :   0.9592 B( 12-C , 13-O ) :   1.9149 B( 12-C , 14-C ) :   0.9603
B( 14-C , 15-C ) :   1.3888 B( 14-C , 17-C ) :   0.1091 B( 14-C , 19-C ) :   1.3855
B( 15-C , 16-C ) :   1.4371 B( 15-C , 18-C ) :   0.1106 B( 15-C , 28-H ) :   0.9576
B( 16-C , 17-C ) :   1.4269 B( 16-C , 19-C ) :   0.1113 B( 16-C , 29-H ) :   0.9613
B( 17-C , 18-C ) :   1.4218 B( 17-C , 30-H ) :   0.9617 B( 18-C , 19-C ) :   1.4434
B( 18-C , 31-H ) :   0.9612 B( 19-C , 32-H ) :   0.9582

FINAL SINGLE POINT ENERGY      -832.622853842639

DIPOLE MOMENT
-------------
                                X             Y             Z
Electronic contribution:      3.91743      -3.72675      -2.03073
Nuclear contribution   :     -4.25492       3.03939       2.36573
                        -----------------------------------------
Total Dipole Moment    :     -0.33750      -0.68736       0.33500
                        -----------------------------------------
Magnitude (a.u.)       :      0.83582
Magnitude (Debye)      :      2.12448

Rotational constants in cm-1:     0.019736     0.007039     0.005788
Rotational constants in MHz :   591.660599   211.035814   173.520521

                             ****ORCA TERMINATED NORMALLY****
TOTAL RUN TIME: 0 days 0 hours 22 minutes 6 seconds 344 msec
